/*--------------------------------*- C++ -*----------------------------------*\
  =========                 |
  \\      /  F ield         | OpenFOAM: The Open Source CFD Toolbox
   \\    /   O peration     | Website:  https://openfoam.org
    \\  /    A nd           | Version:  12
     \\/     M anipulation  |
\*---------------------------------------------------------------------------*/
FoamFile
{
    format      ascii;
    class       surfaceScalarField;
    location    "651";
    object      phi;
}
// * * * * * * * * * * * * * * * * * * * * * * * * * * * * * * * * * * * * * //

dimensions      [0 3 -1 0 0 0 0];

internalField   nonuniform List<scalar> 
67008
(
2.7524e-06
-3.57212e-14
-4.65942e-14
8.47754e-15
2.8858e-15
2.7524e-06
-3.57091e-14
-4.67311e-14
8.11908e-15
2.324e-15
2.7524e-06
-2.51589e-14
-3.62959e-14
7.24661e-15
4.84468e-15
2.7524e-06
-2.60926e-14
-3.88246e-14
6.86104e-15
5.69037e-15
2.7524e-06
-3.18595e-14
-4.57679e-14
7.82574e-15
5.65738e-15
2.7524e-06
-2.31013e-14
-3.71677e-14
7.69413e-15
3.49402e-15
2.7524e-06
-9.04117e-15
-2.37303e-14
6.72126e-15
8.88915e-16
2.7524e-06
2.51984e-15
-1.34618e-14
5.97618e-15
-1.00126e-16
2.7524e-06
1.68967e-14
2.51935e-16
4.73206e-15
4.01855e-16
2.7524e-06
3.28558e-14
1.68421e-14
2.624e-15
1.05558e-15
2.7524e-06
4.28452e-14
2.86192e-14
4.89145e-16
2.4612e-15
2.7524e-06
4.50523e-14
3.3662e-14
-1.1602e-15
4.8217e-15
2.7524e-06
4.17846e-14
3.473e-14
-2.49804e-15
8.04038e-15
2.7524e-06
3.28285e-14
3.17979e-14
-3.34554e-15
1.11728e-14
2.7524e-06
1.60678e-14
2.21511e-14
-3.12055e-15
1.44297e-14
2.7524e-06
-7.91532e-15
4.94717e-15
-1.44691e-15
1.74445e-14
2.7524e-06
-3.53646e-14
-1.71544e-14
1.36217e-15
2.03163e-14
2.7524e-06
-6.1717e-14
-4.0273e-14
4.62707e-15
2.21296e-14
2.7524e-06
-8.38356e-14
-6.12178e-14
7.65031e-15
2.30112e-14
2.7524e-06
-1.00174e-13
-7.86226e-14
9.82152e-15
2.26046e-14
2.7524e-06
-1.10038e-13
-9.1968e-14
1.06937e-14
2.12979e-14
2.7524e-06
-1.12971e-13
-1.01282e-13
9.9738e-15
1.90502e-14
2.7524e-06
-1.08463e-13
-1.06202e-13
7.74908e-15
1.60566e-14
2.7524e-06
-9.60772e-14
-1.06167e-13
4.27585e-15
1.22725e-14
2.7524e-06
-7.53741e-14
-1.00093e-13
-6.30995e-17
7.7353e-15
2.7524e-06
-4.64182e-14
-8.69037e-14
-5.02537e-15
2.75251e-15
2.7524e-06
-1.03144e-14
-6.60221e-14
-1.0317e-14
-2.44683e-15
2.7524e-06
3.02159e-14
-3.80879e-14
-1.56164e-14
-7.48126e-15
2.7524e-06
7.11767e-14
-5.21749e-15
-2.04928e-14
-1.20774e-14
2.7524e-06
1.08005e-13
2.94677e-14
-2.44687e-14
-1.57268e-14
2.7524e-06
1.36307e-13
6.21601e-14
-2.70178e-14
-1.7943e-14
2.7524e-06
1.52762e-13
8.94848e-14
-2.76121e-14
-1.84913e-14
2.7524e-06
1.5505e-13
1.08495e-13
-2.58576e-14
-1.72548e-14
2.7524e-06
1.42892e-13
1.17644e-13
-2.16283e-14
-1.46933e-14
2.7524e-06
1.1737e-13
1.16341e-13
-1.51553e-14
-1.08105e-14
2.7524e-06
8.10092e-14
1.04935e-13
-6.93589e-15
-6.07443e-15
2.7524e-06
3.73898e-14
8.47792e-14
2.21488e-15
-5.33329e-16
2.7524e-06
-9.4579e-15
5.7697e-14
1.14438e-14
5.12684e-15
2.7524e-06
-5.52026e-14
2.61627e-14
1.98083e-14
1.07403e-14
2.7524e-06
-9.56397e-14
-7.09674e-15
2.64053e-14
1.57939e-14
2.7524e-06
-1.26993e-13
-3.91341e-14
3.04253e-14
2.01409e-14
2.7524e-06
-1.4632e-13
-6.72512e-14
3.12487e-14
2.34888e-14
2.7524e-06
-1.52101e-13
-8.9016e-14
2.873e-14
2.56042e-14
2.7524e-06
-1.44328e-13
-1.02843e-13
2.30561e-14
2.6348e-14
2.7524e-06
-1.24081e-13
-1.07698e-13
1.47907e-14
2.55574e-14
2.7524e-06
-9.39363e-14
-1.03666e-13
4.74447e-15
2.36063e-14
2.7524e-06
-5.72196e-14
-9.15871e-14
-6.03306e-15
2.0639e-14
2.7524e-06
-1.79335e-14
-7.29597e-14
-1.64e-14
1.70552e-14
2.7524e-06
1.96572e-14
-5.0135e-14
-2.52655e-14
1.31347e-14
2.7524e-06
5.18383e-14
-2.55732e-14
-3.17905e-14
9.353e-15
2.7524e-06
7.5499e-14
-1.99512e-15
-3.54167e-14
6.22506e-15
2.7524e-06
8.87698e-14
1.81688e-14
-3.5958e-14
4.12281e-15
2.7524e-06
9.07492e-14
3.28164e-14
-3.3559e-14
3.39516e-15
2.7524e-06
8.17466e-14
4.05507e-14
-2.85794e-14
3.87086e-15
2.7524e-06
6.33367e-14
4.07807e-14
-2.17348e-14
5.67926e-15
2.7524e-06
3.80727e-14
3.3726e-14
-1.38404e-14
8.54413e-15
2.7524e-06
9.06559e-15
2.03569e-14
-5.80714e-15
1.24159e-14
2.7524e-06
-2.03288e-14
2.25197e-15
1.54e-15
1.67939e-14
2.7524e-06
-4.69914e-14
-1.85146e-14
7.54446e-15
2.13667e-14
2.7524e-06
-6.82603e-14
-3.97856e-14
1.17223e-14
2.56145e-14
2.7524e-06
-8.21807e-14
-5.9345e-14
1.38287e-14
2.91965e-14
2.7524e-06
-8.7711e-14
-7.53689e-14
1.38226e-14
3.18218e-14
2.7524e-06
-8.46094e-14
-8.62447e-14
1.19393e-14
3.31099e-14
2.7524e-06
-7.37675e-14
-9.1131e-14
8.60206e-15
3.2931e-14
2.7524e-06
-5.65979e-14
-8.96442e-14
4.3714e-15
3.11475e-14
2.7524e-06
-3.49628e-14
-8.19316e-14
-2.02674e-16
2.79938e-14
2.7524e-06
-1.11212e-14
-6.88932e-14
-4.54942e-15
2.37294e-14
2.7524e-06
1.26437e-14
-5.17828e-14
-8.18885e-15
1.87689e-14
2.7524e-06
3.41119e-14
-3.22318e-14
-1.0749e-14
1.34868e-14
2.7524e-06
5.15018e-14
-1.20622e-14
-1.20482e-14
8.33144e-15
2.7524e-06
6.35504e-14
6.91606e-15
-1.21064e-14
3.74251e-15
2.7524e-06
6.96288e-14
2.31466e-14
-1.1092e-14
2.27899e-17
2.7524e-06
6.98452e-14
3.54085e-14
-9.34332e-15
-2.57277e-15
2.7524e-06
6.49015e-14
4.30593e-14
-7.22569e-15
-4.06386e-15
2.7524e-06
5.59396e-14
4.59608e-14
-5.12505e-15
-4.48597e-15
2.7524e-06
4.45745e-14
4.46027e-14
-3.403e-15
-4.03147e-15
2.7524e-06
3.24796e-14
3.98768e-14
-2.34593e-15
-2.89038e-15
2.7524e-06
2.11553e-14
3.28944e-14
-2.12134e-15
-1.2726e-15
2.7524e-06
1.18026e-14
2.49306e-14
-2.7352e-15
5.76666e-16
2.7524e-06
5.01431e-15
1.70581e-14
-4.0486e-15
2.48684e-15
2.7524e-06
8.69465e-16
1.00873e-14
-5.79345e-15
4.27414e-15
2.7524e-06
-1.04519e-15
4.50492e-15
-7.66025e-15
5.90894e-15
2.7524e-06
-1.51796e-15
4.09684e-16
-9.29467e-15
7.3254e-15
2.7524e-06
-1.55284e-15
-2.38224e-15
-1.03456e-14
8.50837e-15
2.7524e-06
-2.18952e-15
-4.29332e-15
-1.05269e-14
9.42136e-15
2.7524e-06
-4.245e-15
-5.81137e-15
-9.654e-15
1.00368e-14
2.7524e-06
-8.19664e-15
-7.40778e-15
-7.67122e-15
1.03753e-14
2.7524e-06
-1.40641e-14
-9.40137e-15
-4.66873e-15
1.04303e-14
2.7524e-06
-2.14882e-14
-1.19182e-14
-8.508e-16
1.0253e-14
2.7524e-06
-2.96929e-14
-1.48388e-14
3.49476e-15
9.77273e-15
2.7524e-06
-3.75964e-14
-1.77794e-14
7.97758e-15
9.09396e-15
2.7524e-06
-4.37729e-14
-2.00666e-14
1.21772e-14
8.25442e-15
2.7524e-06
-4.6357e-14
-2.05131e-14
1.56362e-14
7.39989e-15
2.7524e-06
-4.30024e-14
-1.72569e-14
1.79921e-14
6.59306e-15
2.7524e-06
-3.01037e-14
-6.9488e-15
1.8958e-14
5.88314e-15
2.7524e-06
-1.6259e-15
1.63868e-14
1.83318e-14
5.26506e-15
2.7524e-06
5.33885e-14
6.39176e-14
1.60756e-14
4.70531e-15
2.7524e-06
1.55605e-13
1.56723e-13
1.22565e-14
4.23096e-15
2.7524e-06
3.44076e-13
3.34525e-13
7.12853e-15
3.69014e-15
2.7524e-06
6.93841e-13
6.73252e-13
1.08414e-15
3.05559e-15
2.7524e-06
1.34906e-12
1.31799e-12
-5.38159e-15
2.20168e-15
2.75239e-06
2.58361e-12
2.54357e-12
-1.17643e-14
1.27068e-15
2.75238e-06
4.92473e-12
4.87805e-12
-1.75381e-14
2.74341e-16
2.75236e-06
9.38223e-12
9.33192e-12
-2.22324e-14
-6.48348e-16
2.75233e-06
1.78707e-11
1.78202e-11
-2.54194e-14
-1.46232e-15
2.75226e-06
3.40713e-11
3.40244e-11
-2.68581e-14
-2.05665e-15
2.75213e-06
6.50257e-11
6.49857e-11
-2.64425e-14
-2.3413e-15
2.75188e-06
1.24075e-10
1.24045e-10
-2.41825e-14
-2.25791e-15
2.75141e-06
2.36841e-10
2.36822e-10
-2.02692e-14
-1.77185e-15
2.7505e-06
4.52268e-10
4.52263e-10
-1.49628e-14
-9.75355e-16
2.74878e-06
8.62897e-10
8.62905e-10
-8.63268e-15
1.24081e-16
2.74549e-06
1.64559e-09
1.64561e-09
-1.74618e-15
1.4442e-15
2.73921e-06
3.13639e-09
3.13642e-09
5.19181e-15
2.98377e-15
2.72729e-06
5.96162e-09
5.96166e-09
1.16788e-14
4.66113e-15
2.70472e-06
1.12861e-08
1.12862e-08
1.72378e-14
6.45416e-15
2.662e-06
2.13577e-08
2.13577e-08
2.1489e-14
8.40896e-15
2.58355e-06
3.92244e-08
3.92245e-08
2.40745e-14
1.05248e-14
2.42988e-06
7.68361e-08
7.68362e-08
2.51147e-14
1.31202e-14
2.21451e-06
1.07688e-07
1.07688e-07
2.25776e-14
1.34083e-14
4.10378e-07
4.10378e-07
3.14618e-14
2.62385e-14
2.66475e-06
-5.09081e-14
-4.7186e-14
6.31121e-15
2.66475e-06
-5.37659e-14
-4.83054e-14
5.74968e-15
2.66475e-06
-4.23574e-14
-4.06214e-14
7.29737e-15
2.66475e-06
-4.33815e-14
-4.23312e-14
7.40028e-15
2.66475e-06
-4.78435e-14
-4.62555e-14
6.42709e-15
2.66475e-06
-2.99949e-14
-3.71276e-14
4.66621e-15
2.66475e-06
-5.11457e-15
-2.43067e-14
3.18828e-15
2.66475e-06
1.4686e-14
-1.45759e-14
2.58769e-15
2.66475e-06
3.71628e-14
-2.31076e-15
3.05534e-15
2.66475e-06
6.0506e-14
1.20517e-14
3.98515e-15
2.66475e-06
7.36818e-14
2.25474e-14
5.76289e-15
2.66475e-06
7.34887e-14
2.72117e-14
8.18311e-15
2.66475e-06
6.3165e-14
2.80584e-14
1.12668e-14
2.66475e-06
4.27826e-14
2.4688e-14
1.43049e-14
2.66475e-06
1.04506e-14
1.52641e-14
1.74542e-14
2.66475e-06
-3.19737e-14
-7.88364e-16
2.01651e-14
2.66475e-06
-7.79466e-14
-2.08134e-14
2.25893e-14
2.66475e-06
-1.20431e-13
-4.17068e-14
2.40789e-14
2.66475e-06
-1.54708e-13
-6.06877e-14
2.48954e-14
2.66475e-06
-1.78699e-13
-7.68042e-14
2.47391e-14
2.66475e-06
-1.91422e-13
-8.95161e-14
2.38879e-14
2.66475e-06
-1.92096e-13
-9.87426e-14
2.22225e-14
2.66475e-06
-1.79779e-13
-1.03874e-13
1.9759e-14
2.66475e-06
-1.53562e-13
-1.04048e-13
1.64125e-14
2.66475e-06
-1.13074e-13
-9.80914e-14
1.21311e-14
2.66475e-06
-5.914e-14
-8.48891e-14
7.20852e-15
2.66475e-06
5.23215e-15
-6.4123e-14
1.85515e-15
2.66475e-06
7.45401e-14
-3.66399e-14
-3.48296e-15
2.66475e-06
1.41438e-13
-4.74323e-15
-8.46062e-15
2.66475e-06
1.98119e-13
2.84262e-14
-1.26185e-14
2.66475e-06
2.37729e-13
5.93226e-14
-1.55095e-14
2.66475e-06
2.55558e-13
8.47759e-14
-1.70235e-14
2.66475e-06
2.49152e-13
1.02303e-13
-1.69377e-14
2.66475e-06
2.19214e-13
1.10418e-13
-1.56134e-14
2.66475e-06
1.68755e-13
1.08807e-13
-1.29019e-14
2.66475e-06
1.02636e-13
9.76748e-14
-9.22025e-15
2.66475e-06
2.74548e-14
7.84678e-14
-4.49606e-15
2.66475e-06
-4.98606e-14
5.27807e-14
7.45768e-16
2.66475e-06
-1.22106e-13
2.30268e-14
6.38995e-15
2.66475e-06
-1.82751e-13
-8.25409e-15
1.19582e-14
2.66475e-06
-2.26352e-13
-3.82665e-14
1.71677e-14
2.66475e-06
-2.48944e-13
-6.44053e-14
2.16696e-14
2.66475e-06
-2.49191e-13
-8.44636e-14
2.50489e-14
2.66475e-06
-2.27941e-13
-9.68874e-14
2.71306e-14
2.66475e-06
-1.87994e-13
-1.00865e-13
2.75858e-14
2.66475e-06
-1.3424e-13
-9.64333e-14
2.66528e-14
2.66475e-06
-7.26239e-14
-8.45089e-14
2.4356e-14
2.66475e-06
-9.76797e-15
-6.65212e-14
2.10445e-14
2.66475e-06
4.76214e-14
-4.47624e-14
1.70542e-14
2.66475e-06
9.38709e-14
-2.1644e-14
1.28586e-14
2.66475e-06
1.24622e-13
2.92125e-16
9.06366e-15
2.66475e-06
1.37529e-13
1.8652e-14
6.05523e-15
2.66475e-06
1.32176e-13
3.15983e-14
4.36416e-15
2.66475e-06
1.09934e-13
3.77359e-14
3.96571e-15
2.66475e-06
7.42418e-14
3.67088e-14
5.13583e-15
2.66475e-06
2.97116e-14
2.8733e-14
7.62989e-15
2.66475e-06
-1.82146e-14
1.49456e-14
1.14067e-14
2.66475e-06
-6.40705e-14
-3.10197e-15
1.59994e-14
2.66475e-06
-1.03023e-13
-2.33462e-14
2.10408e-14
2.66475e-06
-1.31175e-13
-4.36875e-14
2.59884e-14
2.66475e-06
-1.46141e-13
-6.2062e-14
3.03544e-14
2.66475e-06
-1.46972e-13
-7.67146e-14
3.37634e-14
2.66475e-06
-1.34121e-13
-8.62412e-14
3.57084e-14
2.66475e-06
-1.09643e-13
-8.98781e-14
3.60401e-14
2.66475e-06
-7.64225e-14
-8.74411e-14
3.45671e-14
2.66475e-06
-3.78577e-14
-7.91304e-14
3.14767e-14
2.66475e-06
2.22693e-15
-6.59327e-14
2.70287e-14
2.66475e-06
4.02025e-14
-4.91034e-14
2.16566e-14
2.66475e-06
7.27475e-14
-3.0231e-14
1.58167e-14
2.66475e-06
9.73591e-14
-1.10782e-14
1.00043e-14
2.66475e-06
1.12491e-13
6.7069e-15
4.73538e-15
2.66475e-06
1.17559e-13
2.16756e-14
3.26759e-16
2.66475e-06
1.13259e-13
3.28101e-14
-2.90803e-15
2.66475e-06
1.01127e-13
3.95676e-14
-4.95215e-15
2.66475e-06
8.33415e-14
4.194e-14
-5.80529e-15
2.66475e-06
6.26766e-14
4.0454e-14
-5.64758e-15
2.66475e-06
4.18253e-14
3.60016e-14
-4.68502e-15
2.66475e-06
2.31081e-14
2.96613e-14
-3.13492e-15
2.66475e-06
8.20829e-15
2.2593e-14
-1.27626e-15
2.66475e-06
-2.14754e-15
1.57816e-14
7.14623e-16
2.66475e-06
-8.12021e-15
9.8951e-15
2.62055e-15
2.66475e-06
-1.06197e-14
5.33841e-15
4.3714e-15
2.66475e-06
-1.10869e-14
2.12794e-15
5.8642e-15
2.66475e-06
-1.11825e-14
4.04642e-17
7.05631e-15
2.66475e-06
-1.24984e-14
-1.34712e-15
7.91829e-15
2.66475e-06
-1.62132e-14
-2.52968e-15
8.42455e-15
2.66475e-06
-2.28503e-14
-3.92975e-15
8.62491e-15
2.66475e-06
-3.22539e-14
-5.86351e-15
8.52673e-15
2.66475e-06
-4.35875e-14
-8.39964e-15
8.235e-15
2.66475e-06
-5.54262e-14
-1.14441e-14
7.74749e-15
2.66475e-06
-6.59242e-14
-1.45972e-14
7.21045e-15
2.66475e-06
-7.27777e-14
-1.72319e-14
6.68967e-15
2.66475e-06
-7.30089e-14
-1.82134e-14
6.31121e-15
2.66475e-06
-6.2779e-14
-1.57764e-14
6.13162e-15
2.66475e-06
-3.60367e-14
-6.79229e-15
6.14901e-15
2.66475e-06
1.7706e-14
1.43579e-14
6.32979e-15
2.66475e-06
1.17756e-13
5.80623e-14
6.5471e-15
2.66475e-06
3.01014e-13
1.4402e-13
6.75043e-15
2.66475e-06
6.37442e-13
3.09182e-13
6.71564e-15
2.66475e-06
1.2619e-12
6.2428e-13
6.40012e-15
2.66474e-06
2.43331e-12
1.22431e-12
5.65862e-15
2.66474e-06
4.64352e-12
2.36517e-12
4.59318e-15
2.66473e-06
8.83924e-12
4.53845e-12
3.22947e-15
2.66472e-06
1.68332e-11
8.68516e-12
1.72114e-15
2.66468e-06
3.20619e-11
1.6589e-11
1.75164e-16
2.66463e-06
6.11319e-11
3.16793e-11
-1.26456e-15
2.66451e-06
1.1668e-10
6.05173e-11
-2.4366e-15
2.6643e-06
2.22651e-10
1.15537e-10
-3.2584e-15
2.66389e-06
4.25032e-10
2.20627e-10
-3.61357e-15
2.66311e-06
8.11748e-10
4.21445e-10
-3.53095e-15
2.66162e-06
1.54912e-09
8.04398e-10
-2.94841e-15
2.65877e-06
2.95584e-09
1.53478e-09
-1.91394e-15
2.65334e-06
5.63868e-09
2.92765e-09
-4.13417e-16
2.643e-06
1.07366e-08
5.57117e-09
1.50193e-15
2.62334e-06
2.03793e-08
1.05699e-08
3.78302e-15
2.58588e-06
3.87488e-08
2.00601e-08
6.44759e-15
2.51665e-06
7.14635e-08
3.69903e-08
9.34841e-15
2.37827e-06
1.42092e-07
7.31325e-08
1.27268e-14
2.18947e-06
1.9494e-07
1.01541e-07
1.36764e-14
8.01591e-07
4.0451e-07
2.82993e-14
2.48957e-06
-5.31303e-14
-4.31368e-14
7.05663e-15
2.48957e-06
-6.17096e-14
-4.61903e-14
6.83347e-15
2.48957e-06
-5.83795e-14
-4.36138e-14
7.8015e-15
2.48957e-06
-5.63349e-14
-4.46139e-14
7.38322e-15
2.48957e-06
-5.03381e-14
-4.41972e-14
6.22649e-15
2.48957e-06
-2.45571e-14
-3.44802e-14
5.45638e-15
2.48957e-06
5.29997e-15
-2.31108e-14
5.13142e-15
2.48957e-06
2.8165e-14
-1.46276e-14
4.87495e-15
2.48957e-06
5.08573e-14
-4.95682e-15
5.18214e-15
2.48957e-06
7.23508e-14
6.21041e-15
6.05931e-15
2.48957e-06
8.28751e-14
1.52008e-14
7.62276e-15
2.48957e-06
7.8217e-14
2.00916e-14
9.57416e-15
2.48957e-06
6.04626e-14
2.13721e-14
1.20205e-14
2.48957e-06
3.02675e-14
1.84806e-14
1.45597e-14
2.48957e-06
-1.24117e-14
1.04095e-14
1.72209e-14
2.48957e-06
-6.42855e-14
-2.90202e-15
1.95417e-14
2.48957e-06
-1.1794e-13
-1.94249e-14
2.16291e-14
2.48957e-06
-1.65883e-13
-3.69387e-14
2.31454e-14
2.48957e-06
-2.0298e-13
-5.34938e-14
2.43204e-14
2.48957e-06
-2.26703e-13
-6.84246e-14
2.4974e-14
2.48957e-06
-2.35538e-13
-8.11746e-14
2.51831e-14
2.48957e-06
-2.28166e-13
-9.12883e-14
2.47047e-14
2.48957e-06
-2.03387e-13
-9.76963e-14
2.33321e-14
2.48957e-06
-1.6057e-13
-9.91215e-14
2.0892e-14
2.48957e-06
-1.00485e-13
-9.42032e-14
1.72709e-14
2.48957e-06
-2.59234e-14
-8.19109e-14
1.26542e-14
2.48957e-06
5.75353e-14
-6.2192e-14
7.23345e-15
2.48957e-06
1.41685e-13
-3.61972e-14
1.4497e-15
2.48957e-06
2.17008e-13
-6.32327e-15
-4.28923e-15
2.48957e-06
2.74325e-13
2.44495e-14
-9.56791e-15
2.48957e-06
3.06629e-13
5.297e-14
-1.39581e-14
2.48957e-06
3.09938e-13
7.65244e-14
-1.72997e-14
2.48957e-06
2.8337e-13
9.29995e-14
-1.92596e-14
2.48957e-06
2.29689e-13
1.01117e-13
-1.99246e-14
2.48957e-06
1.54281e-13
1.0052e-13
-1.89985e-14
2.48957e-06
6.43904e-14
9.12853e-14
-1.66157e-14
2.48957e-06
-3.11046e-14
7.45652e-14
-1.2645e-14
2.48957e-06
-1.23345e-13
5.1723e-14
-7.40662e-15
2.48957e-06
-2.03637e-13
2.48686e-14
-1.06388e-15
2.48957e-06
-2.64727e-13
-3.66938e-15
5.90527e-15
2.48957e-06
-3.01258e-13
-3.13086e-14
1.30152e-14
2.48957e-06
-3.10001e-13
-5.55886e-14
1.97194e-14
2.48957e-06
-2.91311e-13
-7.44116e-14
2.53624e-14
2.48957e-06
-2.48077e-13
-8.62913e-14
2.95601e-14
2.48957e-06
-1.85502e-13
-9.04186e-14
3.18213e-14
2.48957e-06
-1.10902e-13
-8.67672e-14
3.21408e-14
2.48957e-06
-3.23769e-14
-7.61266e-14
3.0467e-14
2.48957e-06
4.1653e-14
-5.98111e-14
2.7085e-14
2.48957e-06
1.03477e-13
-3.99582e-14
2.24428e-14
2.48957e-06
1.47072e-13
-1.88467e-14
1.7108e-14
2.48957e-06
1.68592e-13
1.10679e-15
1.18385e-14
2.48957e-06
1.66907e-13
1.76419e-14
7.22364e-15
2.48957e-06
1.43438e-13
2.90186e-14
3.96892e-15
2.48957e-06
1.01668e-13
3.39595e-14
2.32148e-15
2.48957e-06
4.73284e-14
3.21545e-14
2.66031e-15
2.48957e-06
-1.29202e-14
2.38862e-14
4.87404e-15
2.48957e-06
-7.19447e-14
1.02828e-14
8.85779e-15
2.48957e-06
-1.23237e-13
-7.12311e-15
1.41449e-14
2.48957e-06
-1.61629e-13
-2.6369e-14
2.02227e-14
2.48957e-06
-1.83458e-13
-4.54599e-14
2.64397e-14
2.48957e-06
-1.87356e-13
-6.24799e-14
3.21227e-14
2.48957e-06
-1.73722e-13
-7.58098e-14
3.67202e-14
2.48957e-06
-1.44679e-13
-8.41815e-14
3.96036e-14
2.48957e-06
-1.04012e-13
-8.69572e-14
4.05328e-14
2.48957e-06
-5.61891e-14
-8.40439e-14
3.93114e-14
2.48957e-06
-5.93503e-15
-7.57082e-14
3.60721e-14
2.48957e-06
4.20479e-14
-6.2943e-14
3.113e-14
2.48957e-06
8.3668e-14
-4.69784e-14
2.4966e-14
2.48957e-06
1.15609e-13
-2.93183e-14
1.81385e-14
2.48957e-06
1.35843e-13
-1.15995e-14
1.12347e-14
2.48957e-06
1.43666e-13
4.69213e-15
4.85301e-15
2.48957e-06
1.39512e-13
1.82793e-14
-6.07114e-16
2.48957e-06
1.2531e-13
2.83147e-14
-4.78194e-15
2.48957e-06
1.03731e-13
3.43875e-14
-7.58574e-15
2.48957e-06
7.7942e-14
3.65858e-14
-8.991e-15
2.48957e-06
5.1428e-14
3.54513e-14
-9.15693e-15
2.48957e-06
2.72068e-14
3.18416e-14
-8.30893e-15
2.48957e-06
7.57499e-15
2.67392e-14
-6.70068e-15
2.48957e-06
-6.20622e-15
2.11687e-14
-4.66251e-15
2.48957e-06
-1.40587e-14
1.59603e-14
-2.4318e-15
2.48957e-06
-1.69331e-14
1.16406e-14
-2.70483e-16
2.48957e-06
-1.65455e-14
8.49777e-15
1.67537e-15
2.48957e-06
-1.50026e-14
6.47845e-15
3.26508e-15
2.48957e-06
-1.44217e-14
5.32256e-15
4.43329e-15
2.48957e-06
-1.65593e-14
4.60964e-15
5.16782e-15
2.48957e-06
-2.24874e-14
3.8711e-15
5.48706e-15
2.48957e-06
-3.23353e-14
2.70208e-15
5.49471e-15
2.48957e-06
-4.54013e-14
8.25661e-16
5.27257e-15
2.48957e-06
-6.01905e-14
-1.82867e-15
4.98323e-15
2.48957e-06
-7.4597e-14
-5.17591e-15
4.71856e-15
2.48957e-06
-8.6178e-14
-8.86192e-15
4.64527e-15
2.48957e-06
-9.20761e-14
-1.23168e-14
4.84959e-15
2.48957e-06
-8.87864e-14
-1.45268e-14
5.40093e-15
2.48957e-06
-7.183e-14
-1.39098e-14
6.29846e-15
2.48957e-06
-3.40858e-14
-7.70214e-15
7.45269e-15
2.48957e-06
3.70546e-14
9.01341e-15
8.73954e-15
2.48957e-06
1.65138e-13
4.52743e-14
9.94399e-15
2.48957e-06
3.95602e-13
1.18117e-13
1.09003e-14
2.48957e-06
8.14972e-13
2.5943e-13
1.13371e-14
2.48957e-06
1.5905e-12
5.30113e-13
1.11628e-14
2.48957e-06
3.04355e-12
1.04638e-12
1.02579e-14
2.48956e-06
5.78475e-12
2.02848e-12
8.6865e-15
2.48956e-06
1.09895e-11
3.89973e-12
6.52776e-15
2.48955e-06
2.09082e-11
7.47064e-12
3.96457e-15
2.48953e-06
3.98063e-11
1.42783e-11
1.19658e-15
2.48948e-06
7.58835e-11
2.72793e-11
-1.55626e-15
2.4894e-06
1.4482e-10
5.21332e-11
-4.04598e-15
2.48925e-06
2.76337e-10
9.95714e-11
-6.10189e-15
2.48896e-06
5.275e-10
1.90228e-10
-7.52772e-15
2.4884e-06
1.00754e-09
3.63566e-10
-8.24624e-15
2.48733e-06
1.92308e-09
6.94422e-10
-8.13372e-15
2.48529e-06
3.67165e-09
1.3261e-09
-7.18544e-15
2.48138e-06
7.0109e-09
2.53347e-09
-5.3929e-15
2.47391e-06
1.33797e-08
4.83009e-09
-2.80659e-15
2.4596e-06
2.54838e-08
9.20146e-09
4.58605e-16
2.43201e-06
4.8788e-08
1.75488e-08
4.31447e-15
2.38022e-06
9.06218e-08
3.26355e-08
8.4348e-15
2.27173e-06
1.84833e-07
6.57466e-08
1.27931e-14
2.13208e-06
2.45012e-07
8.95802e-08
1.43616e-14
1.14731e-06
3.92616e-07
2.9449e-14
2.22713e-06
-3.89489e-14
-4.77997e-14
7.80074e-15
2.22713e-06
-4.41035e-14
-6.696e-14
7.75945e-15
2.22713e-06
-4.60175e-14
-7.41618e-14
7.51844e-15
2.22713e-06
-4.49701e-14
-6.26688e-14
6.76278e-15
2.22713e-06
-3.90636e-14
-4.01482e-14
6.07531e-15
2.22713e-06
-2.85207e-14
-1.09521e-14
6.04334e-15
2.22713e-06
-1.92015e-14
1.55095e-14
6.13481e-15
2.22713e-06
-1.28882e-14
3.3971e-14
6.03439e-15
2.22713e-06
-6.24167e-15
4.91901e-14
6.12581e-15
2.22713e-06
1.87646e-15
6.19584e-14
6.69491e-15
2.22713e-06
9.69753e-15
6.6538e-14
7.59156e-15
2.22713e-06
1.50879e-14
5.77568e-14
8.72524e-15
2.22713e-06
1.73689e-14
3.58247e-14
1.01111e-14
2.22713e-06
1.59129e-14
1.88851e-15
1.17753e-14
2.22713e-06
1.04109e-14
-4.18132e-14
1.35962e-14
2.22713e-06
8.3406e-16
-9.18207e-14
1.54868e-14
2.22713e-06
-1.15887e-14
-1.41446e-13
1.74098e-14
2.22713e-06
-2.57364e-14
-1.84699e-13
1.9447e-14
2.22713e-06
-4.03661e-14
-2.1624e-13
2.16322e-14
2.22713e-06
-5.50234e-14
-2.33324e-13
2.39321e-14
2.22713e-06
-6.88676e-14
-2.3341e-13
2.61015e-14
2.22713e-06
-8.09514e-14
-2.15074e-13
2.77879e-14
2.22713e-06
-8.96646e-14
-1.77403e-13
2.85139e-14
2.22713e-06
-9.3375e-14
-1.21162e-13
2.79054e-14
2.22713e-06
-9.06301e-14
-4.92686e-14
2.56791e-14
2.22713e-06
-8.0541e-14
3.32094e-14
2.1731e-14
2.22713e-06
-6.32693e-14
1.18509e-13
1.61606e-14
2.22713e-06
-4.00038e-14
1.97497e-13
9.29401e-15
2.22713e-06
-1.29336e-14
2.60655e-13
1.60409e-15
2.22713e-06
1.54191e-14
3.00249e-13
-6.41118e-15
2.22713e-06
4.24189e-14
3.11306e-13
-1.41996e-14
2.22713e-06
6.5771e-14
2.9224e-13
-2.12478e-14
2.22713e-06
8.35623e-14
2.44581e-13
-2.698e-14
2.22713e-06
9.4383e-14
1.72949e-13
-3.0888e-14
2.22713e-06
9.75285e-14
8.46093e-14
-3.25016e-14
2.22713e-06
9.25736e-14
-1.21528e-14
-3.14744e-14
2.22713e-06
8.01809e-14
-1.07535e-13
-2.77211e-14
2.22713e-06
6.12456e-14
-1.92905e-13
-2.13185e-14
2.22713e-06
3.75143e-14
-2.59778e-13
-1.26377e-14
2.22713e-06
1.10481e-14
-3.02349e-13
-2.31191e-15
2.22713e-06
-1.57031e-14
-3.16857e-13
8.77135e-15
2.22713e-06
-4.03226e-14
-3.0231e-13
1.96284e-14
2.22713e-06
-6.06029e-14
-2.61463e-13
2.92293e-14
2.22713e-06
-7.485e-14
-1.9936e-13
3.67398e-14
2.22713e-06
-8.19744e-14
-1.23288e-13
4.14455e-14
2.22713e-06
-8.15882e-14
-4.16547e-14
4.29861e-14
2.22713e-06
-7.41526e-14
3.66068e-14
4.13063e-14
2.22713e-06
-6.06681e-14
1.03304e-13
3.6683e-14
2.22713e-06
-4.30434e-14
1.51535e-13
2.9823e-14
2.22713e-06
-2.34172e-14
1.7693e-13
2.1601e-14
2.22713e-06
-4.16513e-15
1.7769e-13
1.30782e-14
2.22713e-06
1.24129e-14
1.55011e-13
5.31799e-15
2.22713e-06
2.44957e-14
1.12712e-13
-7.15989e-16
2.22713e-06
3.06672e-14
5.61297e-14
-4.28972e-15
2.22713e-06
3.04449e-14
-7.32096e-15
-4.95788e-15
2.22713e-06
2.39082e-14
-7.03689e-14
-2.65082e-15
2.22713e-06
1.20081e-14
-1.25591e-13
2.33479e-15
2.22713e-06
-3.90462e-15
-1.67425e-13
9.43579e-15
2.22713e-06
-2.20015e-14
-1.91872e-13
1.78353e-14
2.22713e-06
-4.03954e-14
-1.97049e-13
2.66023e-14
2.22713e-06
-5.72046e-14
-1.83505e-13
3.47552e-14
2.22713e-06
-7.0796e-14
-1.53496e-13
4.1419e-14
2.22713e-06
-7.98405e-14
-1.10897e-13
4.58117e-14
2.22713e-06
-8.3596e-14
-6.06709e-14
4.7522e-14
2.22713e-06
-8.18689e-14
-8.14766e-15
4.63851e-14
2.22713e-06
-7.48183e-14
4.18061e-14
4.24858e-14
2.22713e-06
-6.3338e-14
8.47508e-14
3.62807e-14
2.22713e-06
-4.85607e-14
1.17452e-13
2.83793e-14
2.22713e-06
-3.19042e-14
1.37689e-13
1.95314e-14
2.22713e-06
-1.49311e-14
1.44883e-13
1.05411e-14
2.22713e-06
9.28401e-16
1.39816e-13
2.15787e-15
2.22713e-06
1.44386e-14
1.24256e-13
-5.01942e-15
2.22713e-06
2.47706e-14
1.01298e-13
-1.05502e-14
2.22713e-06
3.15011e-14
7.42452e-14
-1.42228e-14
2.22713e-06
3.46738e-14
4.662e-14
-1.60042e-14
2.22713e-06
3.47457e-14
2.16221e-14
-1.60704e-14
2.22713e-06
3.24709e-14
1.66281e-15
-1.47379e-14
2.22713e-06
2.87145e-14
-1.18782e-14
-1.23928e-14
2.22713e-06
2.43907e-14
-1.88718e-14
-9.49551e-15
2.22713e-06
2.02494e-14
-2.02523e-14
-6.44805e-15
2.22713e-06
1.67666e-14
-1.78867e-14
-3.60083e-15
2.22713e-06
1.42355e-14
-1.40134e-14
-1.22301e-15
2.22713e-06
1.26353e-14
-1.1007e-14
5.20316e-16
2.22713e-06
1.17575e-14
-1.08305e-14
1.57533e-15
2.22713e-06
1.12452e-14
-1.48445e-14
1.99857e-15
2.22713e-06
1.06696e-14
-2.35113e-14
1.93772e-15
2.22713e-06
9.63094e-15
-3.62454e-14
1.60128e-15
2.22713e-06
7.8297e-15
-5.17216e-14
1.22369e-15
2.22713e-06
5.13828e-15
-6.78757e-14
1.03757e-15
2.22713e-06
1.537e-15
-8.23179e-14
1.25399e-15
2.22713e-06
-2.7302e-15
-9.24229e-14
2.02408e-15
2.22713e-06
-7.23773e-15
-9.54549e-14
3.41893e-15
2.22713e-06
-1.1149e-14
-8.81051e-14
5.39716e-15
2.22713e-06
-1.31451e-14
-6.63022e-14
7.83893e-15
2.22713e-06
-1.09451e-14
-2.33259e-14
1.05318e-14
2.22713e-06
-5.62339e-16
5.30015e-14
1.3201e-14
2.22713e-06
2.5199e-14
1.85853e-13
1.5542e-14
2.22713e-06
7.97667e-14
4.2046e-13
1.72352e-14
2.22713e-06
1.88076e-13
8.43211e-13
1.79875e-14
2.22713e-06
3.97528e-13
1.62175e-12
1.76357e-14
2.22713e-06
7.98406e-13
3.07828e-12
1.61193e-14
2.22713e-06
1.56185e-12
5.82546e-12
1.34597e-14
2.22713e-06
3.01685e-12
1.10424e-11
9.83401e-15
2.22712e-06
5.79386e-12
2.09862e-11
5.48897e-15
2.22711e-06
1.10895e-11
3.9934e-11
7.65264e-16
2.22709e-06
2.12077e-11
7.61069e-11
-3.96812e-15
2.22705e-06
4.05629e-11
1.45219e-10
-8.333e-15
2.22697e-06
7.75337e-11
2.77064e-10
-1.19835e-14
2.22682e-06
1.48252e-10
5.28794e-10
-1.46247e-14
2.22653e-06
2.83597e-10
1.01e-09
-1.60237e-14
2.22599e-06
5.423e-10
1.92748e-09
-1.6015e-14
2.22494e-06
1.03678e-09
3.68179e-09
-1.45612e-14
2.22293e-06
1.98483e-09
7.03168e-09
-1.17185e-14
2.21907e-06
3.79085e-09
1.34495e-08
-7.61316e-15
2.21162e-06
7.26116e-09
2.56739e-08
-2.49704e-15
2.19694e-06
1.39101e-08
4.95605e-08
3.32179e-15
2.16866e-06
2.62112e-08
9.26931e-08
9.2947e-15
2.1029e-06
5.41932e-08
1.96401e-07
1.49634e-14
2.03438e-06
7.10615e-08
2.42465e-07
1.7308e-14
3.68103e-07
1.41983e-06
3.22032e-14
2.66475e-06
-2.38604e-14
-7.24657e-14
-8.10641e-17
2.66475e-06
-2.50705e-14
-7.44246e-14
-1.04712e-16
2.66475e-06
-1.77591e-14
-6.30905e-14
-2.21662e-16
2.66475e-06
-1.85417e-14
-6.60246e-14
-2.40868e-16
2.66475e-06
-2.19482e-14
-7.29972e-14
7.6288e-16
2.66475e-06
-1.33823e-14
-5.66057e-14
2.74725e-16
2.66475e-06
-2.83496e-16
-3.2782e-14
-8.76422e-16
2.66475e-06
1.07109e-14
-1.35078e-14
-1.48254e-15
2.66475e-06
2.35162e-14
1.05115e-14
-2.29643e-15
2.66475e-06
3.69268e-14
3.84308e-14
-4.01544e-15
2.66475e-06
4.53316e-14
5.8855e-14
-5.58981e-15
2.66475e-06
4.68608e-14
6.82319e-14
-6.59762e-15
2.66475e-06
4.29825e-14
6.96379e-14
-7.02904e-15
2.66475e-06
3.30497e-14
6.24662e-14
-7.04116e-15
2.66475e-06
1.59383e-14
4.295e-14
-5.97067e-15
2.66475e-06
-7.48247e-15
1.08462e-14
-3.76027e-15
2.66475e-06
-3.34108e-14
-2.88056e-14
-5.63531e-16
2.66475e-06
-5.80621e-14
-6.93865e-14
2.77616e-15
2.66475e-06
-7.86107e-14
-1.06162e-13
5.79501e-15
2.66475e-06
-9.39213e-14
-1.37054e-13
7.8569e-15
2.66475e-06
-1.0325e-13
-1.61329e-13
8.63016e-15
2.66475e-06
-1.06051e-13
-1.78419e-13
7.82997e-15
2.66475e-06
-1.01569e-13
-1.87202e-13
5.47088e-15
2.66475e-06
-8.90715e-14
-1.85927e-13
1.81304e-15
2.66475e-06
-6.80488e-14
-1.72436e-13
-2.89744e-15
2.66475e-06
-3.85438e-14
-1.44889e-13
-8.28268e-15
2.66475e-06
-1.99217e-15
-1.02995e-13
-1.40593e-14
2.66475e-06
3.86049e-14
-4.90045e-14
-1.97764e-14
2.66475e-06
7.89758e-14
1.23305e-14
-2.49409e-14
2.66475e-06
1.14474e-13
7.46195e-14
-2.90274e-14
2.66475e-06
1.40901e-13
1.31048e-13
-3.13836e-14
2.66475e-06
1.55081e-13
1.75696e-13
-3.16261e-14
2.66475e-06
1.55133e-13
2.04015e-13
-2.92699e-14
2.66475e-06
1.40861e-13
2.13768e-13
-2.44699e-14
2.66475e-06
1.13734e-13
2.04558e-13
-1.73117e-14
2.66475e-06
7.61926e-14
1.77574e-13
-8.51508e-15
2.66475e-06
3.20361e-14
1.35865e-13
1.23194e-15
2.66475e-06
-1.48499e-14
8.33631e-14
1.08917e-14
2.66475e-06
-6.00375e-14
2.47919e-14
1.95765e-14
2.66475e-06
-9.94149e-14
-3.45551e-14
2.63408e-14
2.66475e-06
-1.29268e-13
-8.94552e-14
3.03633e-14
2.66475e-06
-1.46713e-13
-1.3496e-13
3.11167e-14
2.66475e-06
-1.50463e-13
-1.67272e-13
2.8368e-14
2.66475e-06
-1.40571e-13
-1.84008e-13
2.24492e-14
2.66475e-06
-1.1841e-13
-1.84153e-13
1.38318e-14
2.66475e-06
-8.65919e-14
-1.68573e-13
3.51565e-15
2.66475e-06
-4.86708e-14
-1.3947e-13
-7.50377e-15
2.66475e-06
-8.70439e-15
-1.00281e-13
-1.80109e-14
2.66475e-06
2.89705e-14
-5.56388e-14
-2.69219e-14
2.66475e-06
6.06036e-14
-1.04012e-14
-3.34165e-14
2.66475e-06
8.31889e-14
3.06189e-14
-3.68337e-14
2.66475e-06
9.48453e-14
6.32036e-14
-3.71065e-14
2.66475e-06
9.49366e-14
8.41979e-14
-3.42685e-14
2.66475e-06
8.37988e-14
9.16508e-14
-2.88864e-14
2.66475e-06
6.33619e-14
8.5281e-14
-2.15716e-14
2.66475e-06
3.62605e-14
6.62636e-14
-1.32913e-14
2.66475e-06
5.88916e-15
3.708e-14
-4.89443e-15
2.66475e-06
-2.43378e-14
1.28899e-15
2.69632e-15
2.66475e-06
-5.12026e-14
-3.71429e-14
8.81579e-15
2.66475e-06
-7.20341e-14
-7.41371e-14
1.29899e-14
2.66475e-06
-8.49826e-14
-1.06014e-13
1.49358e-14
2.66475e-06
-8.90707e-14
-1.29787e-13
1.47138e-14
2.66475e-06
-8.43049e-14
-1.43261e-13
1.24887e-14
2.66475e-06
-7.16975e-14
-1.45597e-13
8.79611e-15
2.66475e-06
-5.29352e-14
-1.36909e-13
4.14868e-15
2.66475e-06
-3.00022e-14
-1.1817e-13
-7.83707e-16
2.66475e-06
-5.3461e-15
-9.14752e-14
-5.4312e-15
2.66475e-06
1.86714e-14
-5.94617e-14
-9.27917e-15
2.66475e-06
3.98014e-14
-2.51616e-14
-1.19376e-14
2.66475e-06
5.62898e-14
8.1983e-15
-1.32675e-14
2.66475e-06
6.7027e-14
3.77326e-14
-1.32527e-14
2.66475e-06
7.14948e-14
6.10409e-14
-1.21438e-14
2.66475e-06
7.00438e-14
7.66174e-14
-1.02553e-14
2.66475e-06
6.35205e-14
8.39151e-14
-8.04198e-15
2.66475e-06
5.32699e-14
8.32873e-14
-5.88198e-15
2.66475e-06
4.10133e-14
7.61171e-14
-4.16874e-15
2.66475e-06
2.84899e-14
6.43403e-14
-3.18364e-15
2.66475e-06
1.72144e-14
5.01526e-14
-3.05954e-15
2.66475e-06
8.30153e-15
3.57801e-14
-3.80539e-15
2.66475e-06
2.27036e-15
2.2951e-14
-5.22744e-15
2.66475e-06
-9.48407e-16
1.27601e-14
-7.06302e-15
2.66475e-06
-1.86804e-15
5.65352e-15
-8.95154e-15
2.66475e-06
-1.39953e-15
1.39401e-15
-1.05412e-14
2.66475e-06
-6.24942e-16
-7.63965e-16
-1.14747e-14
2.66475e-06
-6.27524e-16
-1.87423e-15
-1.14733e-14
2.66475e-06
-2.26075e-15
-3.04686e-15
-1.03852e-14
2.66475e-06
-5.96988e-15
-5.19873e-15
-8.14117e-15
2.66475e-06
-1.17866e-14
-8.87447e-15
-4.87849e-15
2.66475e-06
-1.92903e-14
-1.41653e-14
-7.86136e-16
2.66475e-06
-2.77183e-14
-2.0668e-14
3.79188e-15
2.66475e-06
-3.59383e-14
-2.74995e-14
8.48009e-15
2.66475e-06
-4.25431e-14
-3.31859e-14
1.28336e-14
2.66475e-06
-4.56837e-14