/*--------------------------------*- C++ -*----------------------------------*\
  =========                 |
  \\      /  F ield         | OpenFOAM: The Open Source CFD Toolbox
   \\    /   O peration     | Website:  https://openfoam.org
    \\  /    A nd           | Version:  12
     \\/     M anipulation  |
\*---------------------------------------------------------------------------*/
FoamFile
{
    format      ascii;
    class       volVectorField;
    location    "651";
    object      U;
}
// * * * * * * * * * * * * * * * * * * * * * * * * * * * * * * * * * * * * * //

dimensions      [0 1 -1 0 0 0 0];

internalField   nonuniform List<vector> 
23040
(
(-2.90138e-13 -3.23114e-13 4.40384e-05)
(-2.87228e-13 -3.20546e-13 4.40384e-05)
(-2.10625e-13 -2.67604e-13 4.40384e-05)
(-2.02645e-13 -2.79622e-13 4.40384e-05)
(-2.48499e-13 -3.29093e-13 4.40384e-05)
(-2.04676e-13 -2.74777e-13 4.40384e-05)
(-1.12724e-13 -1.74718e-13 4.40384e-05)
(-3.44712e-14 -1.01447e-13 4.40384e-05)
(6.34721e-14 -1.92428e-14 4.40384e-05)
(1.81667e-13 8.44081e-14 4.40384e-05)
(2.67175e-13 1.58747e-13 4.40384e-05)
(3.00023e-13 1.83627e-13 4.40384e-05)
(2.9551e-13 1.76036e-13 4.40384e-05)
(2.53869e-13 1.4542e-13 4.40384e-05)
(1.57367e-13 7.45586e-14 4.40384e-05)
(3.59842e-15 -4.32759e-14 4.40384e-05)
(-1.84222e-13 -1.95018e-13 4.40384e-05)
(-3.72913e-13 -3.5128e-13 4.40384e-05)
(-5.36889e-13 -4.90857e-13 4.40384e-05)
(-6.61547e-13 -6.01473e-13 4.40384e-05)
(-7.39493e-13 -6.81279e-13 4.40384e-05)
(-7.6616e-13 -7.30443e-13 4.40384e-05)
(-7.38977e-13 -7.48575e-13 4.40384e-05)
(-6.5666e-13 -7.33018e-13 4.40384e-05)
(-5.17997e-13 -6.77838e-13 4.40384e-05)
(-3.2328e-13 -5.7807e-13 4.40384e-05)
(-7.87498e-14 -4.30555e-13 4.40384e-05)
(1.99397e-13 -2.39361e-13 4.40384e-05)
(4.85657e-13 -1.68677e-14 4.40384e-05)
(7.49581e-13 2.16574e-13 4.40384e-05)
(9.60113e-13 4.35323e-13 4.40384e-05)
(1.09114e-12 6.1642e-13 4.40384e-05)
(1.12436e-12 7.404e-13 4.40384e-05)
(1.05318e-12 7.98243e-13 4.40384e-05)
(8.82785e-13 7.8486e-13 4.40384e-05)
(6.29917e-13 7.04172e-13 4.40384e-05)
(3.18934e-13 5.62767e-13 4.40384e-05)
(-2.11544e-14 3.74736e-13 4.40384e-05)
(-3.58606e-13 1.55882e-13 4.40384e-05)
(-6.61651e-13 -7.4992e-14 4.40384e-05)
(-9.00709e-13 -2.98955e-13 4.40384e-05)
(-1.05272e-12 -4.98089e-13 4.40384e-05)
(-1.10383e-12 -6.5528e-13 4.40384e-05)
(-1.05205e-12 -7.58804e-13 4.40384e-05)
(-9.05427e-13 -8.00732e-13 4.40384e-05)
(-6.81128e-13 -7.81514e-13 4.40384e-05)
(-4.04059e-13 -7.0585e-13 4.40384e-05)
(-1.04733e-13 -5.84399e-13 4.40384e-05)
(1.84573e-13 -4.31397e-13 4.40384e-05)
(4.34953e-13 -2.63853e-13 4.40384e-05)
(6.22758e-13 -1.01273e-13 4.40384e-05)
(7.32603e-13 3.92801e-14 4.40384e-05)
(7.57054e-13 1.42157e-13 4.40384e-05)
(6.9794e-13 1.98954e-13 4.40384e-05)
(5.65781e-13 2.04017e-13 4.40384e-05)
(3.79003e-13 1.58711e-13 4.40384e-05)
(1.6099e-13 6.78635e-14 4.40384e-05)
(-6.35845e-14 -5.76566e-14 4.40384e-05)
(-2.71125e-13 -2.04223e-13 4.40384e-05)
(-4.41545e-13 -3.56509e-13 4.40384e-05)
(-5.59251e-13 -4.98912e-13 4.40384e-05)
(-6.152e-13 -6.18219e-13 4.40384e-05)
(-6.07368e-13 -7.02257e-13 4.40384e-05)
(-5.40813e-13 -7.43358e-13 4.40384e-05)
(-4.25691e-13 -7.36993e-13 4.40384e-05)
(-2.75641e-13 -6.84596e-13 4.40384e-05)
(-1.06833e-13 -5.91291e-13 4.40384e-05)
(6.37377e-14 -4.66094e-13 4.40384e-05)
(2.19645e-13 -3.20745e-13 4.40384e-05)
(3.47442e-13 -1.68165e-13 4.40384e-05)
(4.3769e-13 -2.21525e-14 4.40384e-05)
(4.86044e-13 1.05481e-13 4.40384e-05)
(4.92938e-13 2.04889e-13 4.40384e-05)
(4.63278e-13 2.7101e-13 4.40384e-05)
(4.05623e-13 3.02341e-13 4.40384e-05)
(3.31029e-13 3.01583e-13 4.40384e-05)
(2.5154e-13 2.74418e-13 4.40384e-05)
(1.7811e-13 2.28445e-13 4.40384e-05)
(1.18944e-13 1.72397e-13 4.40384e-05)
(7.81203e-14 1.14003e-13 4.40384e-05)
(5.58002e-14 5.97768e-14 4.40384e-05)
(4.86497e-14 1.33911e-14 4.40384e-05)
(5.0545e-14 -2.3534e-14 4.40384e-05)
(5.37412e-14 -5.14524e-14 4.40384e-05)
(5.01769e-14 -7.22006e-14 4.40384e-05)
(3.34255e-14 -8.81988e-14 4.40384e-05)
(-3.2914e-16 -1.02347e-13 4.40384e-05)
(-5.1435e-14 -1.16469e-13 4.40384e-05)
(-1.1717e-13 -1.31715e-13 4.40384e-05)
(-1.9187e-13 -1.47207e-13 4.40384e-05)
(-2.6702e-13 -1.61197e-13 4.40384e-05)
(-3.31644e-13 -1.69962e-13 4.40384e-05)
(-3.71962e-13 -1.67416e-13 4.40384e-05)
(-3.70908e-13 -1.42562e-13 4.40384e-05)
(-3.04231e-13 -7.52716e-14 4.40384e-05)
(-1.33296e-13 7.1073e-14 4.40384e-05)
(2.10505e-13 3.65394e-13 4.40384e-05)
(8.54402e-13 9.36919e-13 4.40384e-05)
(2.0389e-12 2.0319e-12 4.40384e-05)
(4.22349e-12 4.11721e-12 4.40384e-05)
(8.29088e-12 8.08477e-12 4.40384e-05)
(1.59318e-11 1.56332e-11 4.40383e-05)
(3.03811e-11 3.00058e-11 4.40382e-05)
(5.78367e-11 5.74073e-11 4.4038e-05)
(1.10134e-10 1.09679e-10 4.40376e-05)
(2.09879e-10 2.09429e-10 4.40368e-05)
(4.00313e-10 3.99901e-10 4.40353e-05)
(7.63931e-10 7.63584e-10 4.40325e-05)
(1.4581e-09 1.45784e-09 4.40271e-05)
(2.78339e-09 2.78323e-09 4.40168e-05)
(5.31205e-09 5.31201e-09 4.3997e-05)
(1.013e-08 1.01301e-08 4.39596e-05)
(1.93003e-08 1.93005e-08 4.38873e-05)
(3.66916e-08 3.66919e-08 4.37534e-05)
(6.94432e-08 6.94435e-08 4.3487e-05)
(1.31277e-07 1.31277e-07 4.30296e-05)
(2.41043e-07 2.41043e-07 4.20128e-05)
(4.70183e-07 4.70183e-07 4.07332e-05)
(6.63788e-07 6.63788e-07 3.60878e-05)
(2.47354e-06 2.47354e-06 3.77488e-05)
(-5.61294e-13 -3.46086e-13 4.2636e-05)
(-5.76552e-13 -3.49326e-13 4.2636e-05)
(-4.29415e-13 -3.07675e-13 4.2636e-05)
(-4.19902e-13 -3.10466e-13 4.2636e-05)
(-4.96005e-13 -3.34092e-13 4.2636e-05)
(-3.56808e-13 -2.76852e-13 4.2636e-05)
(-1.17205e-13 -1.88539e-13 4.2636e-05)
(8.35793e-14 -1.22541e-13 4.2636e-05)
(3.17514e-13 -4.90086e-14 4.2636e-05)
(5.76311e-13 3.90199e-14 4.2636e-05)
(7.40881e-13 1.01666e-13 4.2636e-05)
(7.68743e-13 1.22588e-13 4.2636e-05)
(6.94937e-13 1.13941e-13 4.2636e-05)
(5.23978e-13 8.05701e-14 4.2636e-05)
(2.29168e-13 1.02854e-14 4.2636e-05)
(-1.80591e-13 -1.00053e-13 4.2636e-05)
(-6.43466e-13 -2.36941e-13 4.2636e-05)
(-1.08477e-12 -3.7705e-13 4.2636e-05)
(-1.4518e-12 -5.03107e-13 4.2636e-05)
(-1.72e-12 -6.06064e-13 4.2636e-05)
(-1.87919e-12 -6.83714e-13 4.2636e-05)
(-1.92249e-12 -7.35111e-13 4.2636e-05)
(-1.84163e-12 -7.57339e-13 4.2636e-05)
(-1.62798e-12 -7.45422e-13 4.2636e-05)
(-1.27444e-12 -6.92149e-13 4.2636e-05)
(-7.82849e-13 -5.91993e-13 4.2636e-05)
(-1.74097e-13 -4.43082e-13 4.2636e-05)
(5.05327e-13 -2.51273e-13 4.2636e-05)
(1.18755e-12 -3.08621e-14 4.2636e-05)
(1.79585e-12 1.97476e-13 4.2636e-05)
(2.2579e-12 4.09657e-13 4.2636e-05)
(2.51832e-12 5.84685e-13 4.2636e-05)
(2.54479e-12 7.05399e-13 4.2636e-05)
(2.33224e-12 7.62783e-13 4.2636e-05)
(1.90162e-12 7.52601e-13 4.2636e-05)
(1.29642e-12 6.77854e-13 4.2636e-05)
(5.75688e-13 5.45194e-13 4.2636e-05)
(-1.93427e-13 3.66614e-13 4.2636e-05)
(-9.39905e-13 1.57178e-13 4.2636e-05)
(-1.59572e-12 -6.55322e-14 4.2636e-05)
(-2.10073e-12 -2.82706e-13 4.2636e-05)
(-2.41028e-12 -4.76493e-13 4.2636e-05)
(-2.50006e-12 -6.30062e-13 4.2636e-05)
(-2.37013e-12 -7.31731e-13 4.2636e-05)
(-2.04191e-12 -7.74059e-13 4.2636e-05)
(-1.55539e-12 -7.56621e-13 4.2636e-05)
(-9.65401e-13 -6.8394e-13 4.2636e-05)
(-3.3671e-13 -5.66108e-13 4.2636e-05)
(2.63508e-13 -4.17509e-13 4.2636e-05)
(7.74956e-13 -2.5507e-13 4.2636e-05)
(1.14918e-12 -9.78471e-14 4.2636e-05)
(1.35502e-12 3.72163e-14 4.2636e-05)
(1.37955e-12 1.35035e-13 4.2636e-05)
(1.22939e-12 1.86386e-13 4.2636e-05)
(9.29849e-13 1.86123e-13 4.2636e-05)
(5.21897e-13 1.35575e-13 4.2636e-05)
(5.67357e-14 4.06771e-14 4.2636e-05)
(-4.11983e-13 -8.77308e-14 4.2636e-05)
(-8.33661e-13 -2.35629e-13 4.2636e-05)
(-1.1662e-12 -3.87739e-13 4.2636e-05)
(-1.37859e-12 -5.28404e-13 4.2636e-05)
(-1.45435e-12 -6.44219e-13 4.2636e-05)
(-1.39198e-12 -7.23507e-13 4.2636e-05)
(-1.20455e-12 -7.59013e-13 4.2636e-05)
(-9.1584e-13 -7.47254e-13 4.2636e-05)
(-5.57035e-13 -6.89918e-13 4.2636e-05)
(-1.64054e-13 -5.92773e-13 4.2636e-05)
(2.26009e-13 -4.65151e-13 4.2636e-05)
(5.77858e-13 -3.19185e-13 4.2636e-05)
(8.62362e-13 -1.67894e-13 4.2636e-05)
(1.05898e-12 -2.46542e-14 4.2636e-05)
(1.15789e-12 9.9276e-14 4.2636e-05)
(1.15995e-12 1.95e-13 4.2636e-05)
(1.07627e-12 2.57979e-13 4.2636e-05)
(9.26389e-13 2.8738e-13 4.2636e-05)
(7.35526e-13 2.86245e-13 4.2636e-05)
(5.30963e-13 2.60504e-13 4.2636e-05)
(3.37843e-13 2.17751e-13 4.2636e-05)
(1.75463e-13 1.66345e-13 4.2636e-05)
(5.44369e-14 1.1355e-13 4.2636e-05)
(-2.34166e-14 6.51936e-14 4.2636e-05)
(-6.42395e-14 2.46116e-14 4.2636e-05)
(-8.03095e-14 -6.91992e-15 4.2636e-05)
(-8.73635e-14 -3.00084e-14 4.2636e-05)
(-1.01538e-13 -4.66348e-14 4.2636e-05)
(-1.35785e-13 -5.93674e-14 4.2636e-05)
(-1.97494e-13 -7.10156e-14 4.2636e-05)
(-2.87064e-13 -8.35009e-14 4.2636e-05)
(-3.98318e-13 -9.79368e-14 4.2636e-05)
(-5.19177e-13 -1.13952e-13 4.2636e-05)
(-6.32043e-13 -1.30011e-13 4.2636e-05)
(-7.14271e-13 -1.42814e-13 4.2636e-05)
(-7.36692e-13 -1.46442e-13 4.2636e-05)
(-6.60203e-13 -1.30419e-13 4.2636e-05)
(-4.24833e-13 -7.56342e-14 4.2636e-05)
(7.15865e-14 5.25456e-14 4.2636e-05)
(1.01659e-12 3.18861e-13 4.2636e-05)
(2.76457e-12 8.44663e-13 4.2636e-05)
(5.99024e-12 1.85976e-12 4.2636e-05)
(1.19842e-11 3.79958e-12 4.2636e-05)
(2.32225e-11 7.49495e-12 4.26359e-05)
(4.44412e-11 1.45289e-11 4.26359e-05)
(8.4694e-11 2.79235e-11 4.26358e-05)
(1.61317e-10 5.34617e-11 4.26356e-05)
(3.07404e-10 1.02182e-10 4.26352e-05)
(5.86148e-10 1.95163e-10 4.26346e-05)
(1.11842e-09 3.72734e-10 4.26333e-05)
(2.13484e-09 7.11849e-10 4.26308e-05)
(4.07531e-09 1.35936e-09 4.26262e-05)
(7.78055e-09 2.5959e-09 4.26173e-05)
(1.48517e-08 4.95628e-09 4.26002e-05)
(2.83325e-08 9.45633e-09 4.25679e-05)
(5.40136e-08 1.80322e-08 4.25052e-05)
(1.02807e-07 3.4321e-08 4.23894e-05)
(1.94918e-07 6.51003e-08 4.21563e-05)
(3.69725e-07 1.23442e-07 4.17613e-05)
(6.8076e-07 2.27595e-07 4.08504e-05)
(1.34223e-06 4.48202e-07 3.97681e-05)
(1.86771e-06 6.27384e-07 3.53893e-05)
(7.32347e-06 2.44071e-06 3.7363e-05)
(-6.53816e-13 -3.22405e-13 3.98331e-05)
(-7.18019e-13 -3.39215e-13 3.98331e-05)
(-6.12618e-13 -3.25274e-13 3.98331e-05)
(-5.98772e-13 -3.22516e-13 3.98331e-05)
(-6.15026e-13 -3.17989e-13 3.98331e-05)
(-3.70317e-13 -2.6155e-13 3.98331e-05)
(-2.55175e-14 -1.90048e-13 3.98331e-05)
(2.53719e-13 -1.34574e-13 3.98331e-05)
(5.45946e-13 -7.5585e-14 3.98331e-05)
(8.41864e-13 -7.91451e-15 3.98331e-05)
(1.00918e-12 4.44015e-14 3.98331e-05)
(9.92821e-13 6.81493e-14 3.98331e-05)
(8.25935e-13 6.57442e-14 3.98331e-05)
(5.16864e-13 3.75988e-14 3.98331e-05)
(5.20764e-14 -2.29765e-14 3.98331e-05)
(-5.40202e-13 -1.15439e-13 3.98331e-05)
(-1.17324e-12 -2.28901e-13 3.98331e-05)
(-1.75322e-12 -3.47298e-13 3.98331e-05)
(-2.21514e-12 -4.58813e-13 3.98331e-05)
(-2.52939e-12 -5.57426e-13 3.98331e-05)
(-2.6816e-12 -6.40085e-13 3.98331e-05)
(-2.65998e-12 -7.03004e-13 3.98331e-05)
(-2.45131e-12 -7.3909e-13 3.98331e-05)
(-2.04481e-12 -7.40044e-13 3.98331e-05)
(-1.43923e-12 -6.96792e-13 3.98331e-05)
(-6.52708e-13 -6.03385e-13 3.98331e-05)
(2.65579e-13 -4.5928e-13 3.98331e-05)
(1.23313e-12 -2.72381e-13 3.98331e-05)
(2.14497e-12 -5.84174e-14 3.98331e-05)
(2.89305e-12 1.62611e-13 3.98331e-05)
(3.38638e-12 3.68878e-13 3.98331e-05)
(3.56384e-12 5.41897e-13 3.98331e-05)
(3.40269e-12 6.66293e-13 3.98331e-05)
(2.91715e-12 7.33027e-13 3.98331e-05)
(2.15679e-12 7.37012e-13 3.98331e-05)
(1.19679e-12 6.791e-13 3.98331e-05)
(1.30748e-13 5.64029e-13 3.98331e-05)
(-9.41862e-13 4.01309e-13 3.98331e-05)
(-1.92143e-12 2.04502e-13 3.98331e-05)
(-2.71863e-12 -1.00903e-14 3.98331e-05)
(-3.26193e-12 -2.23775e-13 3.98331e-05)
(-3.50541e-12 -4.18316e-13 3.98331e-05)
(-3.43537e-12 -5.76215e-13 3.98331e-05)
(-3.0709e-12 -6.85083e-13 3.98331e-05)
(-2.46076e-12 -7.36701e-13 3.98331e-05)
(-1.67576e-12 -7.29094e-13 3.98331e-05)
(-8.02906e-13 -6.65672e-13 3.98331e-05)
(6.33701e-14 -5.5564e-13 3.98331e-05)
(8.32108e-13 -4.13268e-13 3.98331e-05)
(1.42693e-12 -2.55416e-13 3.98331e-05)
(1.79394e-12 -1.01325e-13 3.98331e-05)
(1.90558e-12 3.16676e-14 3.98331e-05)
(1.76337e-12 1.28103e-13 3.98331e-05)
(1.3951e-12 1.77925e-13 3.98331e-05)
(8.53383e-13 1.75747e-13 3.98331e-05)
(2.07213e-13 1.22712e-13 3.98331e-05)
(-4.65186e-13 2.5294e-14 3.98331e-05)
(-1.08807e-12 -1.05479e-13 3.98331e-05)
(-1.59595e-12 -2.5515e-13 3.98331e-05)
(-1.93984e-12 -4.08267e-13 3.98331e-05)
(-2.09099e-12 -5.48883e-13 3.98331e-05)
(-2.04221e-12 -6.63334e-13 3.98331e-05)
(-1.808e-12 -7.40086e-13 3.98331e-05)
(-1.42043e-12 -7.72257e-13 3.98331e-05)
(-9.24076e-13 -7.57089e-13 3.98331e-05)
(-3.69786e-13 -6.96611e-13 3.98331e-05)
(1.89421e-13 -5.97121e-13 3.98331e-05)
(7.03514e-13 -4.68301e-13 3.98331e-05)
(1.12957e-12 -3.22555e-13 3.98331e-05)
(1.43598e-12 -1.72829e-13 3.98331e-05)
(1.60552e-12 -3.20566e-14 3.98331e-05)
(1.63588e-12 8.9085e-14 3.98331e-05)
(1.53958e-12 1.82549e-13 3.98331e-05)
(1.34124e-12 2.44374e-13 3.98331e-05)
(1.07461e-12 2.74302e-13 3.98331e-05)
(7.7776e-13 2.75573e-13 3.98331e-05)
(4.87668e-13 2.54189e-13 3.98331e-05)
(2.35293e-13 2.17539e-13 3.98331e-05)
(4.08763e-14 1.73554e-13 3.98331e-05)
(-8.81113e-14 1.28936e-13 3.98331e-05)
(-1.56663e-13 8.88792e-14 3.98331e-05)
(-1.796e-13 5.63385e-14 3.98331e-05)
(-1.78334e-13 3.22792e-14 3.98331e-05)
(-1.76569e-13 1.59157e-14 3.98331e-05)
(-1.95742e-13 5.04037e-15 3.98331e-05)
(-2.50985e-13 -3.12361e-15 3.98331e-05)
(-3.48019e-13 -1.15917e-14 3.98331e-05)
(-4.82674e-13 -2.25551e-14 3.98331e-05)
(-6.41486e-13 -3.74571e-14 3.98331e-05)
(-8.03828e-13 -5.64711e-14 3.98331e-05)
(-9.42771e-13 -7.85027e-14 3.98331e-05)
(-1.02612e-12 -1.00692e-13 3.98331e-05)
(-1.01424e-12 -1.17454e-13 3.98331e-05)
(-8.54255e-13 -1.19078e-13 3.98331e-05)
(-4.64371e-13 -8.81141e-14 3.98331e-05)
(2.97939e-13 6.34548e-15 3.98331e-05)
(1.69747e-12 2.21356e-13 3.98331e-05)
(4.23999e-12 6.62824e-13 3.98331e-05)
(8.89282e-12 1.52989e-12 3.98331e-05)
(1.75114e-11 3.19859e-12 3.98331e-05)
(3.3658e-11 6.38543e-12 3.98331e-05)
(6.41476e-11 1.24558e-11 3.98331e-05)
(1.22008e-10 2.40166e-11 3.9833e-05)
(2.32184e-10 4.60584e-11 3.98329e-05)
(4.42284e-10 8.81109e-11 3.98326e-05)
(8.43217e-10 1.68382e-10 3.98321e-05)
(1.60884e-09 3.21726e-10 3.98312e-05)
(3.0709e-09 6.14686e-10 3.98295e-05)
(5.86223e-09 1.17435e-09 3.98261e-05)
(1.11933e-08 2.24377e-09 3.98197e-05)
(2.13701e-08 4.28703e-09 3.98074e-05)
(4.07896e-08 8.18659e-09 3.97842e-05)
(7.78336e-08 1.56351e-08 3.97388e-05)
(1.48432e-07 2.98157e-08 3.9656e-05)
(2.82285e-07 5.67876e-08 3.94837e-05)
(5.38605e-07 1.08241e-07 3.92042e-05)
(9.97534e-07 2.0128e-07 3.84922e-05)
(2.00788e-06 4.04112e-07 3.7784e-05)
(2.72468e-06 5.56131e-07 3.39506e-05)
(1.17896e-05 2.37204e-06 3.66215e-05)
(-6.25605e-13 -2.98233e-13 3.56341e-05)
(-7.8587e-13 -3.28763e-13 3.56341e-05)
(-8.05533e-13 -3.36023e-13 3.56341e-05)
(-7.36946e-13 -3.20388e-13 3.56341e-05)
(-5.89675e-13 -2.85395e-13 3.56341e-05)
(-2.58849e-13 -2.27173e-13 3.56341e-05)
(1.06007e-13 -1.70097e-13 3.56341e-05)
(3.82826e-13 -1.28222e-13 3.56341e-05)
(6.32494e-13 -8.65481e-14 3.56341e-05)
(8.55431e-13 -3.7449e-14 3.56341e-05)
(9.5671e-13 9.28564e-15 3.56341e-05)
(8.78391e-13 3.98554e-14 3.56341e-05)
(6.33674e-13 4.94877e-14 3.56341e-05)
(2.33056e-13 3.46889e-14 3.56341e-05)
(-3.10736e-13 -6.32316e-15 3.56341e-05)
(-9.54279e-13 -7.387e-14 3.56341e-05)
(-1.6083e-12 -1.60795e-13 3.56341e-05)
(-2.18723e-12 -2.60112e-13 3.56341e-05)
(-2.62647e-12 -3.64029e-13 3.56341e-05)
(-2.89376e-12 -4.69011e-13 3.56341e-05)
(-2.9655e-12 -5.68955e-13 3.56341e-05)
(-2.82348e-12 -6.56328e-13 3.56341e-05)
(-2.4524e-12 -7.19101e-13 3.56341e-05)
(-1.84922e-12 -7.45183e-13 3.56341e-05)
(-1.03231e-12 -7.23563e-13 3.56341e-05)
(-4.74794e-14 -6.47167e-13 3.56341e-05)
(1.02356e-12 -5.16158e-13 3.56341e-05)
(2.07104e-12 -3.38375e-13 3.56341e-05)
(2.97233e-12 -1.29082e-13 3.56341e-05)
(3.61675e-12 9.35725e-14 3.56341e-05)
(3.9244e-12 3.1005e-13 3.56341e-05)
(3.85463e-12 5.02492e-13 3.56341e-05)
(3.41229e-12 6.55479e-13 3.56341e-05)
(2.63878e-12 7.56113e-13 3.56341e-05)
(1.61291e-12 7.96222e-13 3.56341e-05)
(4.33759e-13 7.71163e-13 3.56341e-05)
(-7.8242e-13 6.82812e-13 3.56341e-05)
(-1.9228e-12 5.36595e-13 3.56341e-05)
(-2.87947e-12 3.44997e-13 3.56341e-05)
(-3.56526e-12 1.23601e-13 3.56341e-05)
(-3.91905e-12 -1.07464e-13 3.56341e-05)
(-3.91406e-12 -3.27496e-13 3.56341e-05)
(-3.56301e-12 -5.16293e-13 3.56341e-05)
(-2.91366e-12 -6.57674e-13 3.56341e-05)
(-2.04551e-12 -7.40454e-13 3.56341e-05)
(-1.05493e-12 -7.58592e-13 3.56341e-05)
(-5.05556e-14 -7.13431e-13 3.56341e-05)
(8.60905e-13 -6.12452e-13 3.56341e-05)
(1.58464e-12 -4.70021e-13 3.56341e-05)
(2.05081e-12 -3.04061e-13 3.56341e-05)
(2.22188e-12 -1.35398e-13 3.56341e-05)
(2.093e-12 1.5701e-14 3.56341e-05)
(1.69436e-12 1.31726e-13 3.56341e-05)
(1.08145e-12 1.99059e-13 3.56341e-05)
(3.34819e-13 2.10822e-13 3.56341e-05)
(-4.55969e-13 1.66105e-13 3.56341e-05)
(-1.1979e-12 7.1538e-14 3.56341e-05)
(-1.81118e-12 -6.21337e-14 3.56341e-05)
(-2.23443e-12 -2.19428e-13 3.56341e-05)
(-2.43132e-12 -3.83717e-13 3.56341e-05)
(-2.39194e-12 -5.37481e-13 3.56341e-05)
(-2.13104e-12 -6.65066e-13 3.56341e-05)
(-1.68696e-12 -7.53719e-13 3.56341e-05)
(-1.11291e-12 -7.95106e-13 3.56341e-05)
(-4.7171e-13 -7.86144e-13 3.56341e-05)
(1.74247e-13 -7.28169e-13 3.56341e-05)
(7.65962e-13 -6.27763e-13 3.56341e-05)
(1.25448e-12 -4.94939e-13 3.56341e-05)
(1.60386e-12 -3.42803e-13 3.56341e-05)
(1.79434e-12 -1.85173e-13 3.56341e-05)
(1.82448e-12 -3.55509e-14 3.56341e-05)
(1.70866e-12 9.45383e-14 3.56341e-05)
(1.47631e-12 1.96787e-13 3.56341e-05)
(1.16565e-12 2.66578e-13 3.56341e-05)
(8.20645e-13 3.03476e-13 3.56341e-05)
(4.83986e-13 3.10458e-13 3.56341e-05)
(1.91983e-13 2.93526e-13 3.56341e-05)
(-3.00511e-14 2.60275e-13 3.56341e-05)
(-1.71705e-13 2.18731e-13 3.56341e-05)
(-2.36985e-13 1.76033e-13 3.56341e-05)
(-2.43105e-13 1.37585e-13 3.56341e-05)
(-2.14898e-13 1.06927e-13 3.56341e-05)
(-1.8118e-13 8.5291e-14 3.56341e-05)
(-1.68977e-13 7.2069e-14 3.56341e-05)
(-1.99132e-13 6.49174e-14 3.56341e-05)
(-2.82728e-13 6.04834e-14 3.56341e-05)
(-4.18454e-13 5.51879e-14 3.56341e-05)
(-5.94149e-13 4.57808e-14 3.56341e-05)
(-7.87769e-13 3.00528e-14 3.56341e-05)
(-9.71693e-13 6.61001e-15 3.56341e-05)
(-1.1131e-12 -2.41155e-14 3.56341e-05)
(-1.17616e-12 -5.99932e-14 3.56341e-05)
(-1.1187e-12 -9.58335e-14 3.56341e-05)
(-8.85707e-13 -1.22817e-13 3.56341e-05)
(-3.91106e-13 -1.2569e-13 3.56341e-05)
(5.18487e-13 -7.83797e-14 3.56341e-05)
(2.13233e-12 6.54803e-14 3.56341e-05)
(5.00907e-12 3.90694e-13 3.56341e-05)
(1.02218e-11 1.0538e-12 3.56341e-05)
(1.98352e-11 2.3489e-12 3.56341e-05)
(3.78164e-11 4.83397e-12 3.56341e-05)
(7.17592e-11 9.57274e-12 3.56341e-05)
(1.3618e-10 1.8596e-11 3.5634e-05)
(2.5887e-10 3.5795e-11 3.5634e-05)
(4.92865e-10 6.8607e-11 3.56339e-05)
(9.39418e-10 1.31256e-10 3.56336e-05)
(1.79212e-09 2.50997e-10 3.56331e-05)
(3.42046e-09 4.79919e-10 3.56322e-05)
(6.52889e-09 9.17644e-10 3.56305e-05)
(1.24667e-08 1.75484e-09 3.56272e-05)
(2.38018e-08 3.35666e-09 3.56208e-05)
(4.54546e-08 6.4173e-09 3.56089e-05)
(8.67899e-08 1.22812e-08 3.5585e-05)
(1.65865e-07 2.34636e-08 3.55434e-05)
(3.16386e-07 4.4932e-08 3.54478e-05)
(6.08167e-07 8.60696e-08 3.53185e-05)
(1.13469e-06 1.62139e-07 3.4867e-05)
(2.35889e-06 3.34547e-07 3.46819e-05)
(3.0548e-06 4.44735e-07 3.16275e-05)
(1.56257e-05 2.22614e-06 3.54338e-05)
(-1.63664e-13 -7.85931e-13 4.2636e-05)
(-1.69765e-13 -7.98164e-13 4.2636e-05)
(-1.18165e-13 -6.51753e-13 4.2636e-05)
(-1.13501e-13 -6.56809e-13 4.2636e-05)
(-1.44883e-13 -7.54799e-13 4.2636e-05)
(-9.85782e-14 -6.28237e-13 4.2636e-05)
(-1.07214e-14 -4.02775e-13 4.2636e-05)
(6.40766e-14 -2.20261e-13 4.2636e-05)
(1.50562e-13 1.10155e-14 4.2636e-05)
(2.50348e-13 2.97433e-13 4.2636e-05)
(3.21578e-13 5.17412e-13 4.2636e-05)
(3.45673e-13 6.23931e-13 4.2636e-05)
(3.31468e-13 6.54305e-13 4.2636e-05)
(2.77818e-13 6.12145e-13 4.2636e-05)
(1.72521e-13 4.56053e-13 4.2636e-05)
(1.75791e-14 1.70751e-13 4.2636e-05)
(-1.63981e-13 -2.01783e-13 4.2636e-05)
(-3.42547e-13 -5.96338e-13 4.2636e-05)
(-4.96104e-13 -9.60511e-13 4.2636e-05)
(-6.12631e-13 -1.26944e-12 4.2636e-05)
(-6.85489e-13 -1.51411e-12 4.2636e-05)
(-7.09801e-13 -1.69123e-12 4.2636e-05)
(-6.81233e-13 -1.79343e-12 4.2636e-05)
(-5.96609e-13 -1.80837e-12 4.2636e-05)
(-4.53293e-13 -1.71715e-12 4.2636e-05)
(-2.52017e-13 -1.50051e-12 4.2636e-05)
(-9.73689e-16 -1.14921e-12 4.2636e-05)
(2.81009e-13 -6.74923e-13 4.2636e-05)
(5.66132e-13 -1.14128e-13 4.2636e-05)
(8.22865e-13 4.78526e-13 4.2636e-05)
(1.02039e-12 1.03934e-12 4.2636e-05)
(1.13421e-12 1.50914e-12 4.2636e-05)
(1.14831e-12 1.84034e-12 4.2636e-05)
(1.05852e-12 2.00345e-12 4.2636e-05)
(8.7187e-13 1.98755e-12 4.2636e-05)
(6.06186e-13 1.79933e-12 4.2636e-05)
(2.86563e-13 1.46044e-12 4.2636e-05)
(-5.75919e-14 1.00339e-12 4.2636e-05)
(-3.94222e-13 4.70493e-13 4.2636e-05)
(-6.91745e-13 -9.13348e-14 4.2636e-05)
(-9.20948e-13 -6.3215e-13 4.2636e-05)
(-1.05975e-12 -1.1048e-12 4.2636e-05)
(-1.09535e-12 -1.46843e-12 4.2636e-05)
(-1.02716e-12 -1.69518e-12 4.2636e-05)
(-8.64598e-13 -1.7706e-12 4.2636e-05)
(-6.2639e-13 -1.69485e-12 4.2636e-05)
(-3.38745e-13 -1.48249e-12 4.2636e-05)
(-3.30601e-14 -1.16127e-12 4.2636e-05)
(2.57861e-13 -7.69695e-13 4.2636e-05)
(5.04962e-13 -3.5127e-13 4.2636e-05)
(6.84682e-13 4.8429e-14 4.2636e-05)
(7.82226e-13 3.88109e-13 4.2636e-05)
(7.9119e-13 6.3357e-13 4.2636e-05)
(7.1497e-13 7.61669e-13 4.2636e-05)
(5.65798e-13 7.62402e-13 4.2636e-05)
(3.6372e-13 6.40009e-13 4.2636e-05)
(1.33605e-13 4.12283e-13 4.2636e-05)
(-9.87586e-14 1.06915e-13 4.2636e-05)
(-3.09016e-13 -2.41192e-13 4.2636e-05)
(-4.77009e-13 -5.95185e-13 4.2636e-05)
(-5.87534e-13 -9.18668e-13 4.2636e-05)
(-6.3258e-13 -1.18046e-12 4.2636e-05)
(-6.11359e-13 -1.35616e-12 4.2636e-05)
(-5.30432e-13 -1.43133e-12 4.2636e-05)
(-4.01491e-13 -1.40121e-12 4.2636e-05)
(-2.39768e-13 -1.27062e-12 4.2636e-05)
(-6.27774e-14 -1.05353e-12 4.2636e-05)
(1.11637e-13 -7.71442e-13 4.2636e-05)
(2.66714e-13 -4.51801e-13 4.2636e-05)
(3.89337e-13 -1.24313e-13 4.2636e-05)
(4.70807e-13 1.8164e-13 4.2636e-05)
(5.08014e-13 4.4064e-13 4.2636e-05)
(5.02807e-13 6.33597e-13 4.2636e-05)
(4.6164e-13 7.50263e-13 4.2636e-05)
(3.94435e-13 7.89671e-13 4.2636e-05)
(3.1324e-13 7.59806e-13 4.2636e-05)
(2.30601e-13 6.75868e-13 4.2636e-05)
(1.5741e-13 5.57451e-13 4.2636e-05)
(1.01402e-13 4.25156e-13 4.2636e-05)
(6.58526e-14 2.96947e-13 4.2636e-05)
(4.99841e-14 1.86025e-13 4.2636e-05)
(4.94724e-14 9.96308e-14 4.2636e-05)
(5.73513e-14 3.88459e-14 4.2636e-05)
(6.52781e-14 -3.72082e-16 4.2636e-05)
(6.48978e-14 -2.58462e-14 4.2636e-05)
(4.97295e-14 -4.67727e-14 4.2636e-05)
(1.6083e-14 -7.16341e-14 4.2636e-05)
(-3.6178e-14 -1.06101e-13 4.2636e-05)
(-1.04028e-13 -1.52108e-13 4.2636e-05)
(-1.81483e-13 -2.07432e-13 4.2636e-05)
(-2.5978e-13 -2.65003e-13 4.2636e-05)
(-3.27865e-13 -3.12273e-13 4.2636e-05)
(-3.72098e-13 -3.28408e-13 4.2636e-05)
(-3.7588e-13 -2.79729e-13 4.2636e-05)
(-3.16019e-13 -1.08255e-13 4.2636e-05)
(-1.56118e-13 2.89497e-13 4.2636e-05)
(1.67915e-13 1.10557e-12 4.2636e-05)
(7.74449e-13 2.70199e-12 4.2636e-05)
(1.88711e-12 5.76434e-12 4.2636e-05)
(3.93325e-12 1.15963e-11 4.2636e-05)
(7.73433e-12 2.26876e-11 4.26359e-05)
(1.48645e-11 4.37875e-11 4.26359e-05)
(2.83373e-11 8.39614e-11 4.26358e-05)
(5.39284e-11 1.60554e-10 4.26356e-05)
(1.0267e-10 3.06665e-10 4.26352e-05)
(1.9564e-10 5.85489e-10 4.26346e-05)
(3.73167e-10 1.11789e-09 4.26333e-05)
(7.12208e-10 2.13448e-09 4.26308e-05)
(1.35962e-09 4.07515e-09 4.26262e-05)
(2.59604e-09 7.78059e-09 4.26173e-05)
(4.9563e-09 1.4852e-08 4.26002e-05)
(9.45624e-09 2.83329e-08 4.25679e-05)
(1.8032e-08 5.40142e-08 4.25052e-05)
(3.43207e-08 1.02807e-07 4.23894e-05)
(6.51e-08 1.94919e-07 4.21563e-05)
(1.23441e-07 3.69725e-07 4.17613e-05)
(2.27595e-07 6.80761e-07 4.08504e-05)
(4.48202e-07 1.34223e-06 3.97681e-05)
(6.27384e-07 1.86771e-06 3.53893e-05)
(2.44071e-06 7.32347e-06 3.7363e-05)
(-4.03688e-13 -7.78774e-13 4.12314e-05)
(-4.38539e-13 -8.07643e-13 4.12314e-05)
(-3.44769e-13 -7.09443e-13 4.12314e-05)
(-3.35563e-13 -7.10737e-13 4.12314e-05)
(-3.72174e-13 -7.61447e-13 4.12314e-05)
(-2.30187e-13 -6.20585e-13 4.12314e-05)
(-7.7193e-15 -4.02606e-13 4.12314e-05)
(1.81028e-13 -2.27853e-13 4.12314e-05)
(3.89443e-13 -1.98172e-14 4.12314e-05)
(6.09463e-13 2.30574e-13 4.12314e-05)
(7.48488e-13 4.27868e-13 4.12314e-05)
(7.68032e-13 5.27808e-13 4.12314e-05)
(6.88487e-13 5.54336e-13 4.12314e-05)
(5.08809e-13 5.06467e-13 4.12314e-05)
(2.12997e-13 3.54309e-13 4.12314e-05)
(-1.82711e-13 8.90355e-14 4.12314e-05)
(-6.1854e-13 -2.49655e-13 4.12314e-05)
(-1.02928e-12 -6.06829e-13 4.12314e-05)
(-1.37006e-12 -9.37832e-13 4.12314e-05)
(-1.62106e-12 -1.22296e-12 4.12314e-05)
(-1.77241e-12 -1.45393e-12 4.12314e-05)
(-1.81466e-12 -1.62585e-12 4.12314e-05)
(-1.73541e-12 -1.72797e-12 4.12314e-05)
(-1.52177e-12 -1.74399e-12 4.12314e-05)
(-1.16489e-12 -1.65339e-12 4.12314e-05)
(-6.67332e-13 -1.43756e-12 4.12314e-05)
(-5.40743e-14 -1.09085e-12 4.12314e-05)
(6.2345e-13 -6.28646e-13 4.12314e-05)
(1.29369e-12 -8.96517e-14 4.12314e-05)
(1.87893e-12 4.71751e-13 4.12314e-05)
(2.30962e-12 9.95772e-13 4.12314e-05)
(2.53409e-12 1.4278e-12 4.12314e-05)
(2.52537e-12 1.72659e-12 4.12314e-05)
(2.28171e-12 1.8662e-12 4.12314e-05)
(1.8274e-12 1.83931e-12 4.12314e-05)
(1.20678e-12 1.65256e-12 4.12314e-05)
(4.79908e-13 1.32779e-12 4.12314e-05)
(-2.86495e-13 8.95408e-13 4.12314e-05)
(-1.02168e-12 3.95888e-13 4.12314e-05)
(-1.65842e-12 -1.26603e-13 4.12314e-05)
(-2.13784e-12 -6.25323e-13 4.12314e-05)
(-2.41662e-12 -1.05619e-12 4.12314e-05)
(-2.47308e-12 -1.38223e-12 4.12314e-05)
(-2.30945e-12 -1.57802e-12 4.12314e-05)
(-1.95027e-12 -1.63211e-12 4.12314e-05)
(-1.43753e-12 -1.54578e-12 4.12314e-05)
(-8.28281e-13 -1.33452e-12 4.12314e-05)
(-1.88796e-13 -1.02545e-12 4.12314e-05)
(4.12801e-13 -6.5567e-13 4.12314e-05)
(9.15779e-13 -2.66936e-13 4.12314e-05)
(1.27268e-12 9.82066e-14 4.12314e-05)
(1.45336e-12 4.00812e-13 4.12314e-05)
(1.44764e-12 6.10518e-13 4.12314e-05)
(1.26443e-12 7.06621e-13 4.12314e-05)
(9.32681e-13 6.82545e-13 4.12314e-05)
(4.96267e-13 5.44131e-13 4.12314e-05)
(9.53591e-15 3.10761e-13 4.12314e-05)
(-4.71884e-13 1.00852e-14 4.12314e-05)
(-8.96375e-13 -3.23883e-13 4.12314e-05)
(-1.22177e-12 -6.56022e-13 4.12314e-05)
(-1.41841e-12 -9.52811e-13 4.12314e-05)
(-1.47149e-12 -1.18577e-12 4.12314e-05)
(-1.38261e-12 -1.33402e-12 4.12314e-05)
(-1.16773e-12 -1.38563e-12 4.12314e-05)
(-8.54137e-13 -1.33858e-12 4.12314e-05)
(-4.75732e-13 -1.1992e-12 4.12314e-05)
(-7.08302e-14 -9.8244e-13 4.12314e-05)
(3.22014e-13 -7.09631e-13 4.12314e-05)
(6.67193e-13 -4.06955e-13 4.12314e-05)
(9.36177e-13 -1.0226e-13 4.12314e-05)
(1.11044e-12 1.77965e-13 4.12314e-05)
(1.18254e-12 4.11028e-13 4.12314e-05)
(1.15663e-12 5.80997e-13 4.12314e-05)
(1.04671e-12 6.79947e-13 4.12314e-05)
(8.75174e-13 7.08827e-13 4.12314e-05)
(6.69196e-13 6.76427e-13 4.12314e-05)
(4.57147e-13 5.97742e-13 4.12314e-05)
(2.64307e-13 4.91307e-13 4.12314e-05)
(1.09017e-13 3.75758e-13 4.12314e-05)
(4.16974e-16 2.67009e-13 4.12314e-05)
(-6.17289e-14 1.75936e-13 4.12314e-05)
(-8.54797e-14 1.07958e-13 4.12314e-05)
(-8.49155e-14 6.27323e-14 4.12314e-05)
(-7.71767e-14 3.5452e-14 4.12314e-05)
(-7.92873e-14 1.82309e-14 4.12314e-05)
(-1.04724e-13 2.1125e-15 4.12314e-05)
(-1.60815e-13 -2.05826e-14 4.12314e-05)
(-2.47832e-13 -5.49598e-14 4.12314e-05)
(-3.59155e-13 -1.02119e-13 4.12314e-05)
(-4.82471e-13 -1.59543e-13 4.12314e-05)
(-5.99913e-13 -2.19947e-13 4.12314e-05)
(-6.88874e-13 -2.71239e-13 4.12314e-05)
(-7.20667e-13 -2.93613e-13 4.12314e-05)
(-6.57537e-13 -2.55379e-13 4.12314e-05)
(-4.42772e-13 -1.02472e-13 4.12314e-05)
(1.94167e-14 2.61712e-13 4.12314e-05)
(9.03568e-13 1.01567e-12 4.12314e-05)
(2.53924e-12 2.49633e-12 4.12314e-05)
(5.55288e-12 5.34086e-12 4.12314e-05)
(1.11434e-11 1.07616e-11 4.12314e-05)
(2.16114e-11 2.10732e-11 4.12314e-05)
(4.13595e-11 4.06922e-11 4.12313e-05)
(7.88066e-11 7.80498e-11 4.12312e-05)
(1.50077e-10 1.49281e-10 4.12311e-05)
(2.85961e-10 2.8518e-10 4.12308e-05)
(5.45262e-10 5.44555e-10 4.12302e-05)
(1.04049e-09 1.03991e-09 4.12291e-05)
(1.98634e-09 1.98593e-09 4.1227e-05)
(3.79254e-09 3.79232e-09 4.12231e-05)
(7.24239e-09 7.24239e-09 4.12155e-05)
(1.38292e-08 1.38294e-08 4.12009e-05)
(2.63935e-08 2.63939e-08 4.11733e-05)
(5.0357e-08 5.03576e-08 4.11196e-05)
(9.59479e-08 9.59485e-08 4.1021e-05)
(1.82297e-07 1.82298e-07 4.08193e-05)
(3.46763e-07 3.46764e-07 4.0484e-05)
(6.41129e-07 6.4113e-07 3.96749e-05)
(1.27647e-06 1.27647e-06 3.87858e-05)
(1.76023e-06 1.76023e-06 3.46758e-05)
(7.22156e-06 7.22156e-06 3.69778e-05)
(-4.98491e-13 -7.05641e-13 3.84244e-05)
(-5.8829e-13 -7.69485e-13 3.84244e-05)
(-5.48274e-13 -7.57706e-13 3.84244e-05)
(-5.29966e-13 -7.53725e-13 3.84244e-05)
(-4.92732e-13 -7.29192e-13 3.84244e-05)
(-2.41238e-13 -5.70399e-13 3.84244e-05)
(8.11827e-14 -3.74285e-13 3.84244e-05)
(3.40313e-13 -2.21228e-13 3.84244e-05)
(5.96761e-13 -5.5127e-14 3.84244e-05)
(8.45975e-13 1.40944e-13 3.84244e-05)
(9.84446e-13 3.08441e-13 3.84244e-05)
(9.60577e-13 4.06973e-13 3.84244e-05)
(7.90621e-13 4.38515e-13 3.84244e-05)
(4.79399e-13 3.97567e-13 3.84244e-05)
(2.41902e-14 2.67647e-13 3.84244e-05)
(-5.39975e-13 4.77699e-14 3.84244e-05)
(-1.13232e-12 -2.31211e-13 3.84244e-05)
(-1.67053e-12 -5.29756e-13 3.84244e-05)
(-2.09938e-12 -8.16082e-13 3.84244e-05)
(-2.39328e-12 -1.07591e-12 3.84244e-05)
(-2.53683e-12 -1.30034e-12 3.84244e-05)
(-2.51373e-12 -1.47947e-12 3.84244e-05)
(-2.30535e-12 -1.59556e-12 3.84244e-05)
(-1.89702e-12 -1.62664e-12 3.84244e-05)
(-1.287e-12 -1.54978e-12 3.84244e-05)
(-4.96784e-13 -1.34886e-12 3.84244e-05)
(4.186e-13 -1.02309e-12 3.84244e-05)
(1.3711e-12 -5.92477e-13 3.84244e-05)
(2.25329e-12 -9.66482e-14 3.84244e-05)
(2.95888e-12 4.13549e-13 3.84244e-05)
(3.40203e-12 8.85441e-13 3.84244e-05)
(3.52831e-12 1.27291e-12 3.84244e-05)
(3.32126e-12 1.54179e-12 3.84244e-05)
(2.79986e-12 1.67079e-12 3.84244e-05)
(2.01619e-12 1.6533e-12 3.84244e-05)
(1.04631e-12 1.4944e-12 3.84244e-05)
(-1.64591e-14 1.21196e-12 3.84244e-05)
(-1.07339e-12 8.32162e-13 3.84244e-05)
(-2.02621e-12 3.90584e-13 3.84244e-05)
(-2.78737e-12 -7.32919e-14 3.84244e-05)
(-3.28773e-12 -5.17291e-13 3.84244e-05)
(-3.48433e-12 -9.01642e-13 3.84244e-05)