/*--------------------------------*- C++ -*----------------------------------*\
  =========                 |
  \\      /  F ield         | OpenFOAM: The Open Source CFD Toolbox
   \\    /   O peration     | Website:  https://openfoam.org
    \\  /    A nd           | Version:  12
     \\/     M anipulation  |
\*---------------------------------------------------------------------------*/
FoamFile
{
    format      ascii;
    class       surfaceScalarField;
    location    "715";
    object      phi;
}
// * * * * * * * * * * * * * * * * * * * * * * * * * * * * * * * * * * * * * //

dimensions      [0 3 -1 0 0 0 0];

internalField   nonuniform List<scalar> 
67008
(
2.74479e-06
-3.40873e-15
6.61345e-15
3.62434e-15
-6.90704e-15
2.74479e-06
-3.95776e-15
5.91056e-15
3.77343e-15
-6.58499e-15
2.74479e-06
-3.95031e-15
5.60254e-15
3.81261e-15
-6.14623e-15
2.74479e-06
-3.96243e-15
5.19253e-15
3.76733e-15
-5.81432e-15
2.74479e-06
-3.89507e-15
4.8774e-15
3.73638e-15
-5.41734e-15
2.74479e-06
-3.9247e-15
4.4424e-15
3.70872e-15
-5.05107e-15
2.74479e-06
-4.1413e-15
3.84346e-15
3.69307e-15
-4.72808e-15
2.74479e-06
-3.88386e-15
3.83416e-15
3.65667e-15
-4.39608e-15
2.74479e-06
-3.47868e-15
3.95963e-15
3.58328e-15
-4.08567e-15
2.74479e-06
-3.61007e-15
3.35116e-15
3.51552e-15
-3.80349e-15
2.74479e-06
-3.76231e-15
2.75406e-15
3.48736e-15
-3.50335e-15
2.74479e-06
-3.47821e-15
2.92052e-15
3.46183e-15
-3.24127e-15
2.74479e-06
-3.42349e-15
3.03923e-15
3.42477e-15
-3.05254e-15
2.74479e-06
-3.96661e-15
2.25366e-15
3.38442e-15
-2.86322e-15
2.74479e-06
-4.25382e-15
1.29516e-15
3.33927e-15
-2.58919e-15
2.74479e-06
-3.52075e-15
1.34224e-15
3.24576e-15
-2.30977e-15
2.74479e-06
-2.34652e-15
2.32421e-15
3.1024e-15
-2.14236e-15
2.74479e-06
-2.00616e-15
2.96593e-15
2.96946e-15
-2.10045e-15
2.74479e-06
-2.93541e-15
2.33804e-15
2.92746e-15
-2.05159e-15
2.74479e-06
-4.22602e-15
8.17324e-16
2.9828e-15
-1.86145e-15
2.74479e-06
-4.56804e-15
-3.28134e-16
3.06769e-15
-1.53183e-15
2.74479e-06
-3.47612e-15
-1.65229e-16
3.07319e-15
-1.2248e-15
2.74479e-06
-1.64819e-15
1.2032e-15
2.94024e-15
-1.06867e-15
2.74479e-06
-3.88756e-16
2.73387e-15
2.69265e-15
-1.07481e-15
2.74479e-06
-6.40988e-16
3.22085e-15
2.43847e-15
-1.13131e-15
2.74479e-06
-2.32628e-15
2.13553e-15
2.30747e-15
-1.08395e-15
2.74479e-06
-4.41962e-15
8.29406e-18
2.37805e-15
-8.65534e-16
2.74479e-06
-5.61051e-15
-1.93639e-15
2.60285e-15
-5.5507e-16
2.74479e-06
-5.12851e-15
-2.53167e-15
2.83378e-15
-2.80057e-16
2.74479e-06
-3.25256e-15
-1.48399e-15
2.89109e-15
-1.68873e-16
2.74479e-06
-1.10448e-15
4.72458e-16
2.68276e-15
-2.40532e-16
2.74479e-06
7.64301e-17
2.06463e-15
2.26458e-15
-4.02597e-16
2.74479e-06
-3.22078e-16
2.29136e-15
1.81742e-15
-5.35776e-16
2.74479e-06
-1.94262e-15
1.04777e-15
1.55473e-15
-5.6022e-16
2.74479e-06
-3.73955e-15
-8.4119e-16
1.60941e-15
-4.82997e-16
2.74479e-06
-4.62611e-15
-2.19172e-15
1.95849e-15
-3.95573e-16
2.74479e-06
-4.08528e-15
-2.13152e-15
2.45597e-15
-3.71591e-16
2.74479e-06
-2.38244e-15
-6.12444e-16
2.89116e-15
-4.32772e-16
2.74479e-06
-3.08949e-16
1.63822e-15
3.08249e-15
-5.05462e-16
2.74479e-06
1.31264e-15
3.55624e-15
2.93528e-15
-4.54497e-16
2.74479e-06
2.03134e-15
4.30188e-15
2.44983e-15
-1.86719e-16
2.74479e-06
1.85433e-15
3.63366e-15
1.72337e-15
3.07888e-16
2.74479e-06
1.04344e-15
1.8867e-15
9.20161e-16
9.1429e-16
2.74479e-06
-1.69658e-16
-3.09274e-16
2.28281e-16
1.4513e-15
2.74479e-06
-1.73262e-15
-2.38148e-15
-1.81387e-16
1.74898e-15
2.74479e-06
-3.75037e-15
-4.02752e-15
-1.9361e-16
1.67761e-15
2.74479e-06
-6.26437e-15
-5.21978e-15
2.39132e-16
1.22626e-15
2.74479e-06
-8.98851e-15
-6.04723e-15
1.06185e-15
4.76775e-16
2.74479e-06
-1.12349e-14
-6.4437e-15
2.15992e-15
-4.05897e-16
2.74479e-06
-1.20623e-14
-6.14764e-15
3.36626e-15
-1.29079e-15
2.74479e-06
-1.0606e-14
-4.67182e-15
4.50301e-15
-2.06939e-15
2.74479e-06
-6.42226e-15
-1.67863e-15
5.36643e-15
-2.61828e-15
2.74479e-06
2.47328e-16
2.87848e-15
5.73712e-15
-2.83829e-15
2.74479e-06
8.26672e-15
8.4942e-15
5.4555e-15
-2.67109e-15
2.74479e-06
1.573e-14
1.40154e-14
4.47109e-15
-2.15303e-15
2.74479e-06
2.04566e-14
1.79626e-14
2.89404e-15
-1.26629e-15
2.74479e-06
2.05947e-14
1.87066e-14
9.38676e-16
-5.74541e-17
2.74479e-06
1.5208e-14
1.52725e-14
-1.04334e-15
1.32435e-15
2.74479e-06
4.57684e-15
7.47403e-15
-2.64906e-15
2.63006e-15
2.74479e-06
-9.63121e-15
-3.72087e-15
-3.50436e-15
3.58752e-15
2.74479e-06
-2.46005e-14
-1.6268e-14
-3.34308e-15
4.00141e-15
2.74479e-06
-3.70066e-14
-2.75884e-14
-2.11528e-15
3.60134e-15
2.74479e-06
-4.36783e-14
-3.47681e-14
7.34329e-17
2.287e-15
2.74479e-06
-4.23948e-14
-3.56569e-14
2.86641e-15
1.13302e-16
2.74479e-06
-3.22935e-14
-2.89481e-14
5.76962e-15
-2.60206e-15
2.74479e-06
-1.42481e-14
-1.4953e-14
8.16119e-15
-5.454e-15
2.74479e-06
9.06148e-15
4.51283e-15
9.46238e-15
-8.02354e-15
2.74479e-06
3.36497e-14
2.64431e-14
9.2781e-15
-9.7858e-15
2.74479e-06
5.4798e-14
4.6753e-14
7.37781e-15
-1.03922e-14
2.74479e-06
6.81534e-14
6.14384e-14
3.84135e-15
-9.561e-15
2.74479e-06
7.04381e-14
6.68807e-14
-1.03826e-15
-7.40777e-15
2.74479e-06
6.00533e-14
6.11617e-14
-6.63411e-15
-4.22072e-15
2.74479e-06
3.76682e-14
4.40274e-14
-1.21057e-14
-4.76889e-16
2.74479e-06
6.15576e-15
1.71607e-14
-1.6591e-14
3.35663e-15
2.74479e-06
-2.96053e-14
-1.59598e-14
-1.923e-14
6.93823e-15
2.74479e-06
-6.36803e-14
-5.02526e-14
-1.94594e-14
9.58517e-15
2.74479e-06
-8.99853e-14
-7.96896e-14
-1.69631e-14
1.08368e-14
2.74479e-06
-1.03136e-13
-9.89905e-14
-1.1943e-14
1.03991e-14
2.74479e-06
-9.95806e-14
-1.03942e-13
-5.11737e-15
8.40628e-15
2.74479e-06
-7.82685e-14
-9.24685e-14
2.41682e-15
4.95245e-15
2.74479e-06
-4.11746e-14
-6.46242e-14
9.37045e-15
2.25605e-16
2.74479e-06
6.95346e-15
-2.38346e-14
1.45386e-14
-4.82015e-15
2.74479e-06
5.9426e-14
2.41352e-14
1.67609e-14
-9.18017e-15
2.74479e-06
1.08271e-13
7.21927e-14
1.53682e-14
-1.18485e-14
2.74479e-06
1.45438e-13
1.1252e-13
1.02596e-14
-1.24133e-14
2.74479e-06
1.64271e-13
1.38295e-13
2.02994e-15
-1.02666e-14
2.74479e-06
1.60537e-13
1.43773e-13
-8.28529e-15
-5.1728e-15
2.74479e-06
1.33571e-13
1.26947e-13
-1.92305e-14
2.4774e-15
2.74479e-06
8.5946e-14
8.87015e-14
-2.9045e-14
1.17589e-14
2.74479e-06
2.34377e-14
3.3522e-14
-3.5961e-14
2.14285e-14
2.74479e-06
-4.53202e-14
-3.1221e-14
-3.84931e-14
3.05336e-14
2.74479e-06
-1.10354e-13
-9.65507e-14
-3.58277e-14
3.78351e-14
2.74479e-06
-1.61091e-13
-1.5188e-13
-2.76889e-14
4.24483e-14
2.74479e-06
-1.88082e-13
-1.87093e-13
-1.46848e-14
4.3439e-14
2.74479e-06
-1.83025e-13
-1.91982e-13
1.99388e-15
4.05069e-14
2.74479e-06
-1.38257e-13
-1.57376e-13
2.04133e-14
3.36192e-14
2.74479e-06
-4.50722e-14
-7.24529e-14
3.82723e-14
2.30693e-14
2.74479e-06
1.11954e-13
8.04267e-14
5.35622e-14
9.54556e-15
2.74479e-06
3.64324e-13
3.34608e-13
6.50197e-14
-5.43733e-15
2.74479e-06
7.79667e-13
7.58771e-13
7.23059e-14
-1.89672e-14
2.74478e-06
1.49556e-12
1.48971e-12
7.40532e-14
-3.0263e-14
2.74478e-06
2.78396e-12
2.7983e-12
6.96869e-14
-3.81934e-14
2.74477e-06
5.1785e-12
5.21582e-12
5.9466e-14
-4.2191e-14
2.74475e-06
9.71025e-12
9.77051e-12
4.4321e-14
-4.1446e-14
2.74471e-06
1.83405e-11
1.84199e-11
2.50605e-14
-3.60557e-14
2.74464e-06
3.48427e-11
3.49335e-11
2.25115e-15
-2.75064e-14
2.74451e-06
6.64312e-11
6.65235e-11
-2.26496e-14
-1.71393e-14
2.74426e-06
1.26764e-10
1.26847e-10
-4.79908e-14
-7.13781e-15
2.74377e-06
2.42029e-10
2.42092e-10
-7.10789e-14
2.06274e-15
2.74285e-06
4.62179e-10
4.62213e-10
-8.93753e-14
9.79925e-15
2.74108e-06
8.81303e-10
8.81302e-10
-1.00756e-13
1.52305e-14
2.73773e-06
1.6788e-09
1.67876e-09
-1.04087e-13
1.71254e-14
2.73134e-06
3.19289e-09
3.19281e-09
-9.86427e-14
1.59687e-14
2.71923e-06
6.05248e-09
6.05237e-09
-8.43428e-14
1.34428e-14
2.69641e-06
1.14118e-08
1.14117e-08
-6.26369e-14
1.0165e-14
2.65341e-06
2.15011e-08
2.1501e-08
-3.57107e-14
5.92676e-15
2.57485e-06
3.928e-08
3.92799e-08
-6.69094e-15
5.49444e-16
2.42175e-06
7.65517e-08
7.65516e-08
2.32475e-14
-4.97448e-15
2.20817e-06
1.06787e-07
1.06787e-07
4.13624e-14
-9.02128e-15
4.07211e-07
4.07211e-07
1.07223e-13
-2.02593e-14
2.65748e-06
-2.99396e-15
1.2496e-14
-1.29664e-14
2.65748e-06
-3.7444e-15
1.18094e-14
-1.25815e-14
2.65748e-06
-3.76645e-15
1.13303e-14
-1.20261e-14
2.65748e-06
-3.80586e-15
1.07653e-14
-1.15209e-14
2.65748e-06
-3.67832e-15
1.02732e-14
-1.09623e-14
2.65748e-06
-3.66364e-15
9.7196e-15
-1.04221e-14
2.65748e-06
-3.99302e-15
9.06033e-15
-9.93755e-15
2.65748e-06
-3.7441e-15
8.82505e-15
-9.45086e-15
2.65748e-06
-3.27862e-15
8.65234e-15
-8.97515e-15
2.65748e-06
-3.49415e-15
7.94178e-15
-8.54685e-15
2.65748e-06
-3.65407e-15
7.32336e-15
-8.14341e-15
2.65748e-06
-3.18057e-15
7.3357e-15
-7.74825e-15
2.65748e-06
-3.10632e-15
7.26134e-15
-7.37287e-15
2.65748e-06
-3.96763e-15
6.42313e-15
-7.01177e-15
2.65748e-06
-4.45649e-15
5.46389e-15
-6.65275e-15
2.65748e-06
-3.42663e-15
5.36655e-15
-6.32524e-15
2.65748e-06
-1.7763e-15
6.04034e-15
-6.0679e-15
2.65748e-06
-1.40387e-15
6.40091e-15
-5.86123e-15
2.65748e-06
-2.85042e-15
5.68938e-15
-5.62514e-15
2.65748e-06
-4.64252e-15
4.28362e-15
-5.30075e-15
2.65748e-06
-4.83823e-15
3.29744e-15
-4.92761e-15
2.65748e-06
-2.92594e-15
3.49157e-15
-4.61783e-15
2.65748e-06
-2.36234e-16
4.66736e-15
-4.43891e-15
2.65748e-06
1.16363e-15
5.82888e-15
-4.35481e-15
2.65748e-06
6.01642e-17
5.93063e-15
-4.25597e-15
2.65748e-06
-3.01719e-15
4.63042e-15
-4.03898e-15
2.65748e-06
-6.15908e-15
2.5543e-15
-3.69693e-15
2.65748e-06
-7.35087e-15
8.67157e-16
-3.32427e-15
2.65748e-06
-5.77951e-15
5.32992e-16
-3.03676e-15
2.65748e-06
-2.38829e-15
1.64235e-15
-2.9064e-15
2.65748e-06
7.57311e-16
3.37386e-15
-2.90886e-15
2.65748e-06
1.80331e-15
4.54671e-15
-2.94752e-15
2.65748e-06
2.26354e-16
4.36462e-15
-2.93117e-15
2.65748e-06
-2.89326e-15
2.9189e-15
-2.83061e-15
2.65748e-06
-5.60321e-15
1.0982e-15
-2.68884e-15
2.65748e-06
-6.25327e-15
-3.49408e-19
-2.58902e-15
2.65748e-06
-4.38798e-15
3.09574e-16
-2.58195e-15
2.65748e-06
-8.60788e-16
1.91568e-15
-2.64481e-15
2.65748e-06
2.77029e-15
4.02259e-15
-2.67191e-15
2.65748e-06
5.13815e-15
5.63402e-15
-2.52795e-15
2.65748e-06
5.64301e-15
6.04523e-15
-2.14423e-15
2.65748e-06
4.47564e-15
5.14365e-15
-1.55511e-15
2.65748e-06
2.20201e-15
3.33273e-15
-9.11446e-16
2.65748e-06
-7.30412e-16
1.21775e-15
-4.00589e-16
2.65748e-06
-4.17241e-15
-6.94771e-16
-1.82859e-16
2.65748e-06
-8.1764e-15
-2.19361e-15
-3.50285e-16
2.65748e-06
-1.25852e-14
-3.30057e-15
-8.59602e-16
2.65748e-06
-1.66723e-14
-4.11647e-15
-1.5695e-15
2.65748e-06
-1.91017e-14
-4.55029e-15
-2.29708e-15
2.65748e-06
-1.82857e-14
-4.28767e-15
-2.91908e-15
2.65748e-06
-1.30306e-14
-2.85266e-15
-3.35368e-15
2.65748e-06
-3.13719e-15
1.0702e-16
-3.53992e-15
2.65748e-06
1.02013e-14
4.57944e-15
-3.47377e-15
2.65748e-06
2.43206e-14
1.00276e-14
-3.18528e-15
2.65748e-06
3.55179e-14
1.52676e-14
-2.74139e-15
2.65748e-06
4.00625e-14
1.88174e-14
-2.12755e-15
2.65748e-06
3.52846e-14
1.91632e-14
-1.35359e-15
2.65748e-06
2.05404e-14
1.54083e-14
-4.93417e-16
2.65748e-06
-2.4256e-15
7.51586e-15
3.39521e-16
2.65748e-06
-2.95832e-14
-3.51407e-15
1.00711e-15
2.65748e-06
-5.52359e-14
-1.56127e-14
1.39251e-15
2.65748e-06
-7.33528e-14
-2.62556e-14
1.29287e-15
2.65748e-06
-7.8777e-14
-3.27121e-14
5.92532e-16
2.65748e-06
-6.86392e-14
-3.29622e-14
-7.15563e-16
2.65748e-06
-4.29626e-14
-2.59351e-14
-2.47957e-15
2.65748e-06
-4.91012e-15
-1.19965e-14
-4.45931e-15
2.65748e-06
3.93061e-14
6.93968e-15
-6.41179e-15
2.65748e-06
8.16837e-14
2.792e-14
-8.00023e-15
2.65748e-06
1.13585e-13
4.70102e-14
-8.92255e-15
2.65748e-06
1.27834e-13
6.03951e-14
-8.91079e-15
2.65748e-06
1.19924e-13
6.47723e-14
-7.9556e-15
2.65748e-06
8.88655e-14
5.83658e-14
-6.19647e-15
2.65748e-06
3.80455e-14
4.11465e-14
-3.8156e-15
2.65748e-06
-2.53799e-14
1.48306e-14
-9.9332e-16
2.65748e-06
-9.11192e-14
-1.70499e-14
2.09521e-15
2.65748e-06
-1.47819e-13
-4.95862e-14
4.91895e-15
2.65748e-06
-1.84812e-13
-7.70759e-14
7.02613e-15
2.65748e-06
-1.93685e-13
-9.45038e-14
8.09744e-15
2.65748e-06
-1.70329e-13
-9.80478e-14
8.01265e-15
2.65748e-06
-1.15628e-13
-8.58661e-14
6.54097e-15
2.65748e-06
-3.59537e-14
-5.83835e-14
3.63774e-15
2.65748e-06
5.77253e-14
-1.89685e-14
-9.72278e-17
2.65748e-06
1.51592e-13
2.67226e-14
-3.90275e-15
2.65748e-06
2.30712e-13
7.19223e-14
-7.02087e-15
2.65748e-06
2.81479e-13
1.09229e-13
-8.94245e-15
2.65748e-06
2.93978e-13
1.32214e-13
-8.92571e-15
2.65748e-06
2.63563e-13
1.35775e-13
-6.47747e-15
2.65748e-06
1.92528e-13
1.18156e-13
-1.6432e-15
2.65748e-06
8.92307e-14
8.05939e-14
5.05457e-15
2.65748e-06
-3.28072e-14
2.74328e-14
1.28186e-14
2.65748e-06
-1.56061e-13
-3.41158e-14
2.09274e-14
2.65748e-06
-2.61951e-13
-9.54832e-14
2.84158e-14
2.65748e-06
-3.32317e-13
-1.46717e-13
3.43545e-14
2.65748e-06
-3.52494e-13
-1.78363e-13
3.77385e-14
2.65748e-06
-3.11097e-13
-1.81172e-13
3.79677e-14
2.65748e-06
-1.98523e-13
-1.46688e-13
3.47248e-14
2.65748e-06
-3.44599e-15
-6.50983e-14
2.79409e-14
2.65748e-06
2.98101e-13
7.97199e-14
1.78706e-14
2.65748e-06
7.60222e-13
3.18968e-13
5.59658e-15
2.65748e-06
1.50247e-12
7.16513e-13
-6.87452e-15
2.65748e-06
2.77159e-12
1.4007e-12
-1.84562e-14
2.65747e-06
5.05485e-12
2.62501e-12
-2.80832e-14
2.65746e-06
9.30951e-12
4.88695e-12
-3.47508e-14
2.65745e-06
1.73837e-11
9.1493e-12
-3.73515e-14
2.65742e-06
3.27905e-11
1.72448e-11
-3.5635e-14
2.65736e-06
6.22878e-11
3.27025e-11
-3.04699e-14
2.65724e-06
1.18796e-10
6.22739e-11
-2.28513e-14
2.65702e-06
2.26792e-10
1.18745e-10
-1.4193e-14
2.6566e-06
4.33224e-10
2.2664e-10
-5.04331e-15
2.65581e-06
8.27782e-10
4.32763e-10
3.77834e-15
2.65428e-06
1.57955e-09
8.25349e-10
1.12871e-14
2.65137e-06
3.01209e-09
1.57284e-09
1.63764e-14
2.64584e-06
5.73644e-09
2.99372e-09
1.89456e-14
2.63531e-06
1.08991e-08
5.6816e-09
1.97277e-14
2.61538e-06
2.06083e-08
1.07349e-08
1.86763e-14
2.57757e-06
3.90268e-08
2.02828e-08
1.55006e-14
2.50809e-06
7.15664e-08
3.71916e-08
9.96458e-15
2.37003e-06
1.41532e-07
7.30836e-08
2.60897e-15
2.18267e-06
1.93145e-07
1.01003e-07
-4.31299e-15
7.94723e-07
4.01405e-07
-2.13018e-14
2.48279e-06
-2.47998e-15
1.53675e-14
-1.59389e-14
2.48279e-06
-3.14222e-15
1.47722e-14
-1.55318e-14
2.48279e-06
-3.23698e-15
1.41897e-14
-1.49054e-14
2.48279e-06
-3.32634e-15
1.3558e-14
-1.43041e-14
2.48279e-06
-3.20814e-15
1.29754e-14
-1.37007e-14
2.48279e-06
-3.04829e-15
1.24169e-14
-1.31149e-14
2.48279e-06
-3.24067e-15
1.18263e-14
-1.25553e-14
2.48279e-06
-3.18932e-15
1.14173e-14
-1.19867e-14
2.48279e-06
-2.99261e-15
1.09678e-14
-1.14294e-14
2.48279e-06
-3.15683e-15
1.0268e-14
-1.09495e-14
2.48279e-06
-3.13854e-15
9.74813e-15
-1.0526e-14
2.48279e-06
-2.62786e-15
9.64555e-15
-1.00802e-14
2.48279e-06
-2.58325e-15
9.41045e-15
-9.59884e-15
2.48279e-06
-3.40836e-15
8.63614e-15
-9.14424e-15
2.48279e-06
-3.87752e-15
7.80474e-15
-8.76492e-15
2.48279e-06
-2.94697e-15
7.60654e-15
-8.45241e-15
2.48279e-06
-1.48697e-15
7.94085e-15
-8.16399e-15
2.48279e-06
-1.24241e-15
8.02363e-15
-7.85542e-15
2.48279e-06
-2.6035e-15
7.3339e-15
-7.50076e-15
2.48279e-06
-4.04776e-15
6.22271e-15
-7.11862e-15
2.48279e-06
-3.78908e-15
5.54047e-15
-6.77044e-15
2.48279e-06
-1.62028e-15
5.79765e-15
-6.51061e-15
2.48279e-06
8.42657e-16
6.69691e-15
-6.3361e-15
2.48279e-06
1.52851e-15
7.3764e-15
-6.18065e-15
2.48279e-06
-4.29602e-16
7.0655e-15
-5.95922e-15
2.48279e-06
-3.98233e-15
5.67892e-15
-5.63934e-15
2.48279e-06
-6.87601e-15
3.89857e-15
-5.26451e-15
2.48279e-06
-7.18305e-15
2.71211e-15
-4.92066e-15
2.48279e-06
-4.60452e-15
2.74734e-15
-4.67728e-15
2.48279e-06
-6.88035e-16
3.84352e-15
-4.54205e-15
2.48279e-06
2.1757e-15
5.16134e-15
-4.46164e-15
2.48279e-06
2.29397e-15
5.75231e-15
-4.37188e-15
2.48279e-06
-3.11947e-16
5.15029e-15
-4.23829e-15
2.48279e-06
-3.97193e-15
3.67667e-15
-4.09083e-15
2.48279e-06
-6.4404e-15
2.20101e-15
-3.98851e-15
2.48279e-06
-6.18853e-15
1.5949e-15
-3.97152e-15
2.48279e-06
-3.19226e-15
2.23852e-15
-4.03223e-15
2.48279e-06
1.23198e-15
3.82188e-15
-4.09351e-15
2.48279e-06
5.25512e-15
5.55752e-15
-4.033e-15
2.48279e-06
7.50025e-15
6.63493e-15
-3.75019e-15
2.48279e-06
7.52095e-15
6.59681e-15
-3.22802e-15
2.48279e-06
5.64573e-15
5.5084e-15
-2.56335e-15
2.48279e-06
2.46417e-15
3.80788e-15
-1.93562e-15
2.48279e-06
-1.63725e-15
2.0163e-15
-1.52221e-15
2.48279e-06
-6.53949e-15
4.71371e-16
-1.44726e-15
2.48279e-06
-1.21178e-14
-7.34913e-16
-1.748e-15
2.48279e-06
-1.78121e-14
-1.67609e-15
-2.33759e-15
2.48279e-06
-2.22972e-14
-2.42124e-15
-3.02866e-15
2.48279e-06
-2.36848e-14
-2.82372e-15
-3.63098e-15
2.48279e-06
-2.01193e-14
-2.54064e-15
-4.03416e-15
2.48279e-06
-1.06123e-14
-1.09709e-15
-4.19173e-15
2.48279e-06
4.23468e-15
1.78834e-15
-4.10128e-15
2.48279e-06
2.20342e-14
6.01668e-15
-3.81396e-15
2.48279e-06
3.87342e-14
1.09682e-14
-3.42324e-15
2.48279e-06
4.95412e-14
1.54822e-14
-3.01488e-15
2.48279e-06
5.02316e-14
1.82024e-14
-2.58823e-15
2.48279e-06
3.84561e-14
1.78178e-14
-2.11997e-15
2.48279e-06
1.48063e-14
1.36836e-14
-1.62651e-15
2.48279e-06
-1.71917e-14
5.94931e-15
-1.1436e-15
2.48279e-06
-5.14073e-14
-4.27798e-15
-7.16983e-16
2.48279e-06
-8.03387e-14
-1.50283e-14
-4.07805e-16
2.48279e-06
-9.67464e-14
-2.40119e-14
-3.49674e-16
2.48279e-06
-9.51832e-14
-2.88566e-14
-6.69186e-16
2.48279e-06
-7.36799e-14
-2.79211e-14
-1.42276e-15
2.48279e-06
-3.40628e-14
-2.04544e-14
-2.56216e-15
2.48279e-06
1.79133e-14
-7.06147e-15
-3.94713e-15
2.48279e-06
7.32912e-14
1.03253e-14
-5.44345e-15
2.48279e-06
1.21566e-13
2.89092e-14
-6.85723e-15
2.48279e-06
1.52368e-13
4.51746e-14
-7.93811e-15
2.48279e-06
1.58072e-13
5.58026e-14
-8.42258e-15
2.48279e-06
1.35003e-13
5.80404e-14
-8.22757e-15
2.48279e-06
8.43298e-14
5.06e-14
-7.38671e-15
2.48279e-06
1.25443e-14
3.37843e-14
-5.93547e-15
2.48279e-06
-6.95691e-14
9.44781e-15
-3.83369e-15
2.48279e-06
-1.48208e-13
-1.91029e-14
-1.14632e-15
2.48279e-06
-2.09279e-13
-4.73849e-14
1.7413e-15
2.48279e-06
-2.40663e-13
-7.04334e-14
4.39017e-15
2.48279e-06
-2.33994e-13
-8.39702e-14
6.48036e-15
2.48279e-06
-1.87017e-13
-8.49667e-14
7.74432e-15
2.48279e-06
-1.03934e-13
-7.22302e-14
7.75118e-15
2.48279e-06
4.59478e-15
-4.64728e-14
6.26775e-15
2.48279e-06
1.22834e-13
-1.10207e-14
3.55954e-15
2.48279e-06
2.32801e-13
2.90518e-14
2.1478e-16
2.48279e-06
3.16236e-13
6.76631e-14
-3.21409e-15
2.48279e-06
3.58239e-13
9.84942e-14
-6.14652e-15
2.48279e-06
3.49445e-13
1.16153e-13
-7.77853e-15
2.48279e-06
2.87705e-13
1.16536e-13
-7.39576e-15
2.48279e-06
1.79731e-13
9.8536e-14
-4.69342e-15
2.48279e-06
3.90977e-14
6.35472e-14
9.35752e-17
2.48279e-06
-1.14881e-13
1.57947e-14
6.50925e-15
2.48279e-06
-2.59753e-13
-3.82453e-14
1.39522e-14
2.48279e-06
-3.73058e-13
-9.09369e-14
2.16677e-14
2.48279e-06
-4.34438e-13
-1.33753e-13
2.86777e-14
2.48279e-06
-4.29119e-13
-1.58651e-13
3.38936e-14
2.48279e-06
-3.47062e-13
-1.57933e-13
3.64918e-14
2.48279e-06
-1.8077e-13
-1.24654e-13
3.59388e-14
2.48279e-06
7.9971e-14
-5.07375e-14
3.19802e-14
2.48279e-06
4.61885e-13
7.74582e-14
2.45053e-14
2.48279e-06
1.03026e-12
2.87018e-13
1.42381e-14
2.48279e-06
1.93252e-12
6.33447e-13
2.40905e-15
2.48279e-06
3.47481e-12
1.2291e-12
-9.6843e-15
2.48279e-06
6.26106e-12
2.29516e-12
-2.09542e-14
2.48278e-06
1.14765e-11
4.26593e-12
-3.00484e-14
2.48277e-06
2.14061e-11
7.98139e-12
-3.56058e-14
2.48275e-06
4.03907e-11
1.50397e-11
-3.71471e-14
2.4827e-06
7.67802e-11
2.85182e-11
-3.47631e-14
2.48262e-06
1.46542e-10
5.43019e-11
-2.92435e-14
2.48246e-06
2.79955e-10
1.03539e-10
-2.12635e-14
2.48216e-06
5.35126e-10
1.97617e-10
-1.16454e-14
2.48159e-06
1.02334e-09
3.77387e-10
-1.32137e-15
2.4805e-06
1.95452e-09
7.19979e-10
8.56426e-15
2.4784e-06
3.73301e-09
1.37292e-09
1.6812e-14
2.4744e-06
7.12234e-09
2.61662e-09
2.29891e-14
2.46674e-06
1.35792e-08
4.97544e-09
2.69389e-14
2.45214e-06
2.57765e-08
9.43711e-09
2.81964e-14
2.42404e-06
4.92045e-08
1.79187e-08
2.61025e-14
2.3717e-06
9.07889e-08
3.31161e-08
2.04042e-14
2.26294e-06
1.8411e-07
6.6181e-08
1.10539e-14
2.12425e-06
2.42022e-07
8.98153e-08
1.13782e-15
1.13533e-06
3.899e-07
-2.35622e-14
2.22057e-06
1.49042e-14
-1.94212e-15
-1.54877e-14
2.22057e-06
1.44574e-14
-2.36992e-15
-1.51242e-14
2.22057e-06
1.38942e-14
-2.53233e-15
-1.45413e-14
2.22057e-06
1.32679e-14
-2.65237e-15
-1.39629e-14
2.22057e-06
1.26733e-14
-2.67459e-15
-1.33921e-14
2.22057e-06
1.21792e-14
-2.40257e-15
-1.28212e-14
2.22057e-06
1.17138e-14
-2.25352e-15
-1.22636e-14
2.22057e-06
1.12293e-14
-2.35601e-15
-1.17069e-14
2.22057e-06
1.06586e-14
-2.49514e-15
-1.11663e-14
2.22057e-06
1.00656e-14
-2.5689e-15
-1.07036e-14
2.22057e-06
9.67737e-15
-2.38601e-15
-1.03025e-14
2.22057e-06
9.49185e-15
-2.003e-15
-9.87821e-15
2.22057e-06
9.17742e-15
-1.99356e-15
-9.41125e-15
2.22057e-06
8.55774e-15
-2.54503e-15
-8.97467e-15
2.22057e-06
7.94154e-15
-2.86387e-15
-8.62898e-15
2.22057e-06
7.71488e-15
-2.27008e-15
-8.35597e-15
2.22057e-06
7.79138e-15
-1.32266e-15
-8.08675e-15
2.22057e-06
7.68558e-15
-1.18629e-15
-7.77176e-15
2.22057e-06
7.11686e-15
-2.06352e-15
-7.41277e-15
2.22057e-06
6.36986e-15
-2.82503e-15
-7.06152e-15
2.22057e-06
6.00939e-15
-2.26847e-15
-6.77914e-15
2.22057e-06
6.28369e-15
-4.94968e-16
-6.58723e-15
2.22057e-06
6.8629e-15
1.08379e-15
-6.44672e-15
2.22057e-06
7.10172e-15
9.51956e-16
-6.28235e-15
2.22057e-06
6.55481e-15
-1.2127e-15
-6.0342e-15
2.22057e-06
5.33684e-15
-4.19434e-15
-5.70588e-15
2.22057e-06
4.06627e-15
-6.05888e-15
-5.35994e-15
2.22057e-06
3.42561e-15
-5.50366e-15
-5.06728e-15
2.22057e-06
3.69692e-15
-2.75553e-15
-4.86175e-15
2.22057e-06
4.56316e-15
5.34651e-16
-4.72355e-15
2.22057e-06
5.32963e-15
2.36633e-15
-4.60169e-15
2.22057e-06
5.39457e-15
1.66517e-15
-4.46491e-15
2.22057e-06
4.6219e-15
-1.08927e-15
-4.32067e-15
2.22057e-06
3.43804e-15
-4.19387e-15
-4.22371e-15
2.22057e-06
2.54362e-15
-5.768e-15
-4.22164e-15
2.22057e-06
2.47084e-15
-4.80226e-15
-4.30793e-15
2.22057e-06
3.29369e-15
-1.61853e-15
-4.41855e-15
2.22057e-06
4.59919e-15
2.46055e-15
-4.44741e-15
2.22057e-06
5.74137e-15
5.88971e-15
-4.28202e-15
2.22057e-06
6.19854e-15
7.63855e-15
-3.87297e-15
2.22057e-06
5.78401e-15
7.42617e-15
-3.25967e-15
2.22057e-06
4.69048e-15
5.49599e-15
-2.59031e-15
2.22057e-06
3.32272e-15
2.19936e-15
-2.06543e-15
2.22057e-06
2.05161e-15
-2.27756e-15
-1.83831e-15
2.22057e-06
1.03932e-15
-7.79948e-15
-1.97028e-15
2.22057e-06
2.60389e-16
-1.39718e-14
-2.42995e-15
2.22057e-06
-3.73234e-16
-1.97745e-14
-3.08926e-15
2.22057e-06
-8.94288e-16
-2.34977e-14
-3.72771e-15
2.22057e-06
-1.14853e-15
-2.31544e-14
-4.15017e-15
2.22057e-06
-8.41261e-16
-1.71767e-14
-4.27245e-15
2.22057e-06
4.23152e-16
-5.21043e-15
-4.12719e-15
2.22057e-06
2.85144e-15
1.1333e-14
-3.80149e-15
2.22057e-06
6.2802e-15
2.92671e-14
-3.39424e-15
2.22057e-06
1.01229e-14
4.41223e-14
-3.04617e-15
2.22057e-06
1.34104e-14
5.12488e-14
-2.84498e-15
2.22057e-06
1.51098e-14
4.71429e-14
-2.78227e-15
2.22057e-06
1.42564e-14
3.0569e-14
-2.73503e-15
2.22057e-06
1.04415e-14
3.3239e-15
-2.60805e-15
2.22057e-06
3.92599e-15
-2.9977e-14
-2.36335e-15
2.22057e-06
-4.28692e-15
-6.25939e-14
-1.97031e-15
2.22057e-06
-1.25561e-14
-8.70576e-14
-1.48419e-15
2.22057e-06
-1.91178e-14
-9.68518e-14
-9.98329e-16
2.22057e-06
-2.21782e-14
-8.77575e-14
-7.46544e-16
2.22057e-06
-2.05398e-14
-5.93061e-14
-9.18941e-16
2.22057e-06
-1.37545e-14
-1.49013e-14
-1.59177e-15
2.22057e-06
-2.48659e-15
3.84218e-14
-2.73408e-15
2.22057e-06
1.15269e-14
9.10407e-14
-4.21308e-15
2.22057e-06
2.60176e-14
1.32646e-13
-5.94288e-15
2.22057e-06
3.8244e-14
1.53825e-13
-7.61302e-15
2.22057e-06
4.56779e-14
1.48541e-13
-8.87719e-15
2.22057e-06
4.6257e-14
1.15068e-13
-9.454e-15
2.22057e-06
3.91555e-14
5.6635e-14
-9.27232e-15
2.22057e-06
2.49177e-14
-1.85397e-14
-8.27178e-15
2.22057e-06
5.19432e-15
-9.87022e-14
-6.30804e-15
2.22057e-06
-1.73379e-14
-1.69944e-13
-3.35255e-15
2.22057e-06
-3.91886e-14
-2.19088e-13
2.23997e-16
2.22057e-06
-5.64842e-14
-2.35665e-13
3.87002e-15
2.22057e-06
-6.60152e-14
-2.13696e-13
7.15923e-15
2.22057e-06
-6.57067e-14
-1.5363e-13
9.67881e-15
2.22057e-06
-5.49541e-14
-6.21542e-14
1.0883e-14
2.22057e-06
-3.44805e-14
4.82447e-14
1.02392e-14
2.22057e-06
-6.88533e-15
1.61151e-13
7.79703e-15
2.22057e-06
2.38531e-14
2.58837e-13
4.01018e-15
2.22057e-06
5.30696e-14
3.24599e-13
-5.35306e-16
2.22057e-06
7.59655e-14
3.46131e-13
-5.13028e-15
2.22057e-06
8.86259e-14
3.17273e-13
-8.83909e-15
2.22057e-06
8.8e-14
2.39109e-13
-1.05359e-14
2.22057e-06
7.3253e-14
1.21009e-13
-9.54582e-15
2.22057e-06
4.54807e-14
-2.15241e-14
-5.72411e-15
2.22057e-06
7.99675e-15
-1.68453e-13
5.65868e-16
2.22057e-06
-3.39968e-14
-2.97934e-13
8.70431e-15
2.22057e-06
-7.45958e-14
-3.89455e-13
1.78993e-14
2.22057e-06
-1.07232e-13
-4.2558e-13
2.69632e-14
2.22057e-06
-1.25728e-13
-3.95043e-13
3.45314e-14
2.22057e-06
-1.24069e-13
-2.91309e-13
3.93743e-14
2.22057e-06
-9.68631e-14
-1.1015e-13
4.07703e-14
2.22057e-06
-3.79662e-14
1.56049e-13
3.83566e-14
2.22057e-06
6.32971e-14
5.32403e-13
3.19298e-14
2.22057e-06
2.28523e-13
1.08402e-12
2.17246e-14
2.22057e-06
5.0204e-13
1.9595e-12
8.82124e-15
2.22057e-06
9.73068e-13
3.46603e-12
-5.35775e-15
2.22057e-06
1.81686e-12
6.2079e-12
-1.93114e-14
2.22057e-06
3.37707e-12
1.13682e-11
-3.13821e-14
2.22056e-06
6.31791e-12
2.12248e-11
-4.00268e-14
2.22055e-06
1.19023e-11
4.01021e-11
-4.41165e-14
2.22053e-06
2.25606e-11
7.63207e-11
-4.33772e-14
2.22049e-06
4.29395e-11
1.45798e-10
-3.80937e-14
2.2204e-06
8.18394e-11
2.78758e-10
-2.90101e-14
2.22025e-06
1.56149e-10
5.33229e-10
-1.71961e-14
2.21995e-06
2.98134e-10
1.02073e-09
-3.86537e-15
2.21939e-06
5.68825e-10
1.95154e-09
9.48622e-15
2.2183e-06
1.08509e-09
3.73444e-09
2.14789e-14
2.21621e-06
2.07072e-09
7.13825e-09
3.11037e-14
2.21218e-06
3.94417e-09
1.36673e-08
3.76695e-14
2.2044e-06
7.51788e-09
2.60437e-08
4.04072e-14
2.18903e-06
1.43468e-08
5.02274e-08
3.85196e-14
2.15965e-06
2.68482e-08
9.33207e-08
3.16357e-14
2.09255e-06
5.49444e-08
1.96263e-07
1.92194e-14
2.02225e-06
7.20399e-08
2.40287e-07
5.50144e-15
3.64684e-07
1.39914e-06
-2.99651e-14
2.65748e-06
-9.96328e-15
5.80053e-15
1.07382e-14
2.65748e-06
-1.03094e-14
4.89332e-15
1.07719e-14
2.65748e-06
-1.01295e-14
4.54304e-15
1.05813e-14
2.65748e-06
-9.95569e-15
4.15556e-15
1.03253e-14
2.65748e-06
-9.72163e-15
3.93406e-15
1.00973e-14
2.65748e-06
-9.53362e-15
3.6148e-15
9.88707e-15
2.65748e-06
-9.48099e-15
2.98399e-15
9.68153e-15
2.65748e-06
-9.13285e-15
3.02157e-15
9.46396e-15
2.65748e-06
-8.71952e-15
3.18653e-15
9.19143e-15
2.65748e-06
-8.64629e-15
2.52337e-15
8.95971e-15
2.65748e-06
-8.52512e-15
1.99686e-15
8.78259e-15
2.65748e-06
-8.12871e-15
2.43382e-15
8.60829e-15
2.65748e-06
-8.01343e-15
2.53942e-15
8.38832e-15
2.65748e-06
-8.34087e-15
1.37049e-15
8.18343e-15
2.65748e-06
-8.35034e-15
2.22645e-16
7.99456e-15
2.65748e-06
-7.50177e-15
7.41131e-16
7.78582e-15
2.65748e-06
-6.4078e-15
2.3898e-15
7.5183e-15
2.65748e-06
-6.14097e-15
3.10557e-15
7.25854e-15
2.65748e-06
-6.94544e-15
1.76236e-15
7.07234e-15
2.65748e-06
-7.89848e-15
-5.34435e-16
6.99089e-15
2.65748e-06
-7.85088e-15
-1.66752e-15
6.93151e-15
2.65748e-06
-6.50661e-15
-4.96648e-16
6.79817e-15
2.65748e-06
-4.67037e-15
2.16632e-15
6.53069e-15
2.65748e-06
-3.6021e-15
4.29878e-15
6.17764e-15
2.65748e-06
-4.07775e-15
4.14206e-15
5.84224e-15
2.65748e-06
-5.81809e-15
1.50256e-15
5.65934e-15
2.65748e-06
-7.6932e-15
-2.12483e-15
5.66342e-15
2.65748e-06
-8.44959e-15
-4.52857e-15
5.79108e-15
2.65748e-06
-7.52412e-15
-4.25328e-15
5.88004e-15
2.65748e-06
-5.41007e-15
-1.53354e-15
5.77966e-15
2.65748e-06
-3.32346e-15
1.83463e-15
5.43207e-15
2.65748e-06
-2.41507e-15
3.71958e-15
4.93521e-15
2.65748e-06
-3.08489e-15
2.96681e-15
4.46172e-15
2.65748e-06
-4.77747e-15
1.21935e-16
4.20719e-15
2.65748e-06
-6.37899e-15
-2.9933e-15
4.249e-15
2.65748e-06
-6.88389e-15
-4.41753e-15
4.53493e-15
2.65748e-06
-5.96724e-15
-3.19191e-15
4.90897e-15
2.65748e-06
-4.05889e-15
1.94076e-16
5.18687e-15
2.65748e-06
-2.0141e-15
4.1486e-15
5.22214e-15
2.65748e-06
-5.86221e-16
6.92676e-15
4.96288e-15
2.65748e-06
-8.6363e-17
7.47504e-15
4.42172e-15
2.65748e-06
-3.72939e-16
5.79884e-15
3.68242e-15
2.65748e-06
-1.1225e-15
2.67822e-15
2.87277e-15
2.65748e-06
-2.13291e-15
-8.97657e-16
2.15023e-15
2.65748e-06
-3.42464e-15
-4.25161e-15
1.66047e-15
2.65748e-06
-5.20809e-15
-7.13924e-15
1.5247e-15
2.65748e-06
-7.5744e-15
-9.61165e-15
1.80942e-15
2.65748e-06
-1.02342e-14
-1.1633e-14
2.52386e-15
2.65748e-06
-1.24655e-14
-1.27291e-14
3.59183e-15
2.65748e-06
-1.32677e-14
-1.20397e-14
4.86578e-15
2.65748e-06
-1.17738e-14
-8.55804e-15
6.12684e-15
2.65748e-06
-7.5162e-15
-1.80681e-15
7.13186e-15
2.65748e-06
-7.98051e-16
7.85024e-15
7.61611e-15
2.65748e-06
7.19054e-15
1.89242e-14
7.33533e-15
2.65748e-06
1.44898e-14
2.88081e-14
6.21517e-15
2.65748e-06
1.89103e-14
3.4503e-14
4.35931e-15
2.65748e-06
1.87081e-14
3.32497e-14
2.05085e-15
2.65748e-06
1.30139e-14
2.37985e-14
-3.02513e-16
2.65748e-06
2.26446e-15
6.67131e-15
-2.24232e-15
2.65748e-06
-1.18046e-14
-1.55262e-14
-3.28061e-15
2.65748e-06
-2.63263e-14
-3.84358e-14
-3.11641e-15
2.65748e-06
-3.8017e-14
-5.70138e-14
-1.65223e-15
2.65748e-06
-4.38735e-14
-6.624e-14
9.26063e-16
2.65748e-06
-4.17997e-14
-6.27714e-14
4.22295e-15
2.65748e-06
-3.11705e-14
-4.53293e-14
7.65768e-15
2.65748e-06
-1.29474e-14
-1.55891e-14
1.04765e-14
2.65748e-06
1.00474e-14
2.20239e-14
1.20188e-14
2.65748e-06
3.38409e-14
6.12098e-14
1.17515e-14
2.65748e-06
5.384e-14
9.43388e-14
9.46442e-15
2.65748e-06
6.58758e-14
1.14351e-13
5.23898e-15
2.65748e-06
6.69787e-14
1.15722e-13
-5.15917e-16
2.65748e-06
5.57105e-14
9.62513e-14
-7.04502e-15
2.65748e-06
3.30138e-14
5.72292e-14
-1.33713e-14
2.65748e-06
1.87866e-15
3.30537e-15
-1.83823e-14
2.65748e-06
-3.27139e-14
-5.76971e-14
-2.11644e-14
2.65748e-06
-6.4979e-14
-1.1579e-13
-2.10847e-14
2.65748e-06
-8.91283e-14
-1.60444e-13
-1.79409e-14
2.65748e-06
-1.00028e-13
-1.83005e-13
-1.19435e-14
2.65748e-06
-9.4559e-14
-1.77703e-13
-3.9582e-15
2.65748e-06
-7.20053e-14
-1.42816e-13
4.67485e-15
2.65748e-06
-3.47835e-14
-8.10904e-14
1.24691e-14
2.65748e-06
1.23754e-14
-6.74139e-16
1.80322e-14
2.65748e-06
6.28363e-14
8.68294e-14
2.02517e-14
2.65748e-06
1.08877e-13
1.68097e-13
1.82822e-14
2.65748e-06
1.42836e-13
2.29701e-13
1.2143e-14
2.65748e-06
1.58511e-13
2.60601e-13
2.50444e-15
2.65748e-06
1.52363e-13
2.53138e-13
-9.30121e-15
2.65748e-06
1.24037e-13