/*--------------------------------*- C++ -*----------------------------------*\
  =========                 |
  \\      /  F ield         | OpenFOAM: The Open Source CFD Toolbox
   \\    /   O peration     | Website:  https://openfoam.org
    \\  /    A nd           | Version:  12
     \\/     M anipulation  |
\*---------------------------------------------------------------------------*/
FoamFile
{
    format      ascii;
    class       volVectorField;
    location    "715";
    object      U;
}
// * * * * * * * * * * * * * * * * * * * * * * * * * * * * * * * * * * * * * //

dimensions      [0 1 -1 0 0 0 0];

internalField   nonuniform List<vector> 
23040
(
(-4.29479e-14 8.28713e-14 4.39166e-05)
(-4.7262e-14 7.65659e-14 4.39166e-05)
(-4.77919e-14 7.17336e-14 4.39166e-05)
(-4.74957e-14 6.73734e-14 4.39166e-05)
(-4.68461e-14 6.31297e-14 4.39166e-05)
(-4.69163e-14 5.82092e-14 4.39166e-05)
(-4.84208e-14 5.22469e-14 4.39166e-05)
(-4.67781e-14 4.99612e-14 4.39166e-05)
(-4.33153e-14 4.94945e-14 4.39166e-05)
(-4.3205e-14 4.46606e-14 4.39166e-05)
(-4.42165e-14 3.86797e-14 4.39166e-05)
(-4.26517e-14 3.75197e-14 4.39166e-05)
(-4.19492e-14 3.75301e-14 4.39166e-05)
(-4.50282e-14 3.22083e-14 4.39166e-05)
(-4.70135e-14 2.42822e-14 4.39166e-05)
(-4.22305e-14 2.1859e-14 4.39166e-05)
(-3.35434e-14 2.65825e-14 4.39166e-05)
(-2.9604e-14 3.12075e-14 4.39166e-05)
(-3.46801e-14 2.82972e-14 4.39166e-05)
(-4.37566e-14 1.81174e-14 4.39166e-05)
(-4.77907e-14 8.05875e-15 4.39166e-05)
(-4.20208e-14 5.56353e-15 4.39166e-05)
(-2.96314e-14 1.20026e-14 4.39166e-05)
(-1.8894e-14 2.18878e-14 4.39166e-05)
(-1.7125e-14 2.69887e-14 4.39166e-05)
(-2.57375e-14 2.20477e-14 4.39166e-05)
(-3.95601e-14 8.55904e-15 4.39166e-05)
(-5.00212e-14 -6.14035e-15 4.39166e-05)
(-5.04793e-14 -1.36311e-14 4.39166e-05)
(-4.0384e-14 -9.99197e-15 4.39166e-05)
(-2.54591e-14 1.69305e-15 4.39166e-05)
(-1.39707e-14 1.34801e-14 4.39166e-05)
(-1.18078e-14 1.78074e-14 4.39166e-05)
(-1.91381e-14 1.21855e-14 4.39166e-05)
(-3.08359e-14 5.67394e-16 4.39166e-05)
(-3.98031e-14 -9.47914e-15 4.39166e-05)
(-4.10973e-14 -1.14352e-14 4.39166e-05)
(-3.42322e-14 -3.65324e-15 4.39166e-05)
(-2.26353e-14 9.95446e-15 4.39166e-05)
(-1.0986e-14 2.23088e-14 4.39166e-05)
(-2.62992e-15 2.71541e-14 4.39166e-05)
(1.40778e-15 2.20564e-14 4.39166e-05)
(1.62288e-15 8.96588e-15 4.39166e-05)
(-1.46735e-15 -7.41752e-15 4.39166e-05)
(-8.23502e-15 -2.23125e-14 4.39166e-05)
(-1.98558e-14 -3.25987e-14 4.39166e-05)
(-3.70331e-14 -3.76392e-14 4.39166e-05)
(-5.82394e-14 -3.84675e-14 4.39166e-05)
(-7.91222e-14 -3.59962e-14 4.39166e-05)
(-9.32589e-14 -2.98926e-14 4.39166e-05)
(-9.42623e-14 -1.81641e-14 4.39166e-05)
(-7.74754e-14 7.67967e-16 4.39166e-05)
(-4.20532e-14 2.72045e-14 4.39166e-05)
(7.21503e-15 5.87188e-14 4.39166e-05)
(5.99209e-14 8.95037e-14 4.39166e-05)
(1.02288e-13 1.11062e-13 4.39166e-05)
(1.21209e-13 1.13831e-13 4.39166e-05)
(1.0743e-13 9.16656e-14 4.39166e-05)
(5.85394e-14 4.34177e-14 4.39166e-05)
(-1.92902e-14 -2.51979e-14 4.39166e-05)
(-1.11759e-13 -1.02264e-13 4.39166e-05)
(-1.99269e-13 -1.71419e-13 4.39166e-05)
(-2.61497e-13 -2.1463e-13 4.39166e-05)
(-2.81154e-13 -2.17881e-13 4.39166e-05)
(-2.47948e-13 -1.73307e-13 4.39166e-05)
(-1.61262e-13 -8.28787e-14 4.39166e-05)
(-3.16842e-14 4.25435e-14 4.39166e-05)
(1.20202e-13 1.83579e-13 4.39166e-05)
(2.67533e-13 3.14835e-13 4.39166e-05)
(3.82377e-13 4.10038e-13 4.39166e-05)
(4.41005e-13 4.46519e-13 4.39166e-05)
(4.27581e-13 4.12095e-13 4.39166e-05)
(3.37847e-13 3.04461e-13 4.39166e-05)
(1.81336e-13 1.33263e-13 4.39166e-05)
(-1.93628e-14 -8.13536e-14 4.39166e-05)
(-2.32585e-13 -3.06825e-13 4.39166e-05)
(-4.22361e-13 -5.04264e-13 4.39166e-05)
(-5.5314e-13 -6.39012e-13 4.39166e-05)
(-5.95614e-13 -6.83233e-13 4.39166e-05)
(-5.32936e-13 -6.21006e-13 4.39166e-05)
(-3.65922e-13 -4.49918e-13 4.39166e-05)
(-1.12465e-13 -1.91055e-13 4.39166e-05)
(1.95302e-13 1.17851e-13 4.39166e-05)
(5.13727e-13 4.29823e-13 4.39166e-05)
(7.92944e-13 6.94967e-13 4.39166e-05)
(9.85769e-13 8.66255e-13 4.39166e-05)
(1.05686e-12 9.04763e-13 4.39166e-05)
(9.87722e-13 7.9437e-13 4.39166e-05)
(7.79028e-13 5.40589e-13 4.39166e-05)
(4.51936e-13 1.7303e-13 4.39166e-05)
(4.72591e-14 -2.62438e-13 4.39166e-05)
(-3.79342e-13 -7.06016e-13 4.39166e-05)
(-7.63886e-13 -1.08921e-12 4.39166e-05)
(-1.04124e-12 -1.342e-12 4.39166e-05)
(-1.14846e-12 -1.39606e-12 4.39166e-05)
(-1.02225e-12 -1.19007e-12 4.39166e-05)
(-5.88636e-13 -6.51209e-13 4.39166e-05)
(2.6412e-13 3.31565e-13 4.39166e-05)
(1.74135e-12 1.96094e-12 4.39166e-05)
(4.26239e-12 4.64521e-12 4.39166e-05)
(8.67975e-12 9.22152e-12 4.39165e-05)
(1.66782e-11 1.73601e-11 4.39165e-05)
(3.15324e-11 3.23197e-11 4.39164e-05)
(5.95682e-11 6.04096e-11 4.39162e-05)
(1.12913e-10 1.13739e-10 4.39158e-05)
(2.1475e-10 2.15479e-10 4.3915e-05)
(4.09407e-10 4.09955e-10 4.39134e-05)
(7.81378e-10 7.81676e-10 4.39105e-05)
(1.49158e-09 1.49158e-09 4.3905e-05)
(2.84688e-09 2.84656e-09 4.38945e-05)
(5.4293e-09 5.42867e-09 4.38743e-05)
(1.03403e-08 1.03394e-08 4.38361e-05)
(1.96567e-08 1.96556e-08 4.37624e-05)
(3.72611e-08 3.72599e-08 4.36263e-05)
(7.02296e-08 7.02284e-08 4.33565e-05)
(1.32161e-07 1.3216e-07 4.28945e-05)
(2.41394e-07 2.41393e-07 4.18746e-05)
(4.68464e-07 4.68464e-07 4.0594e-05)
(6.58497e-07 6.58496e-07 3.59731e-05)
(2.45465e-06 2.45465e-06 3.76358e-05)
(-3.87567e-14 1.56116e-13 4.25197e-05)
(-4.68165e-14 1.49514e-13 4.25197e-05)
(-4.75234e-14 1.42984e-13 4.25197e-05)
(-4.76494e-14 1.36671e-13 4.25197e-05)
(-4.63768e-14 1.30357e-13 4.25197e-05)
(-4.64454e-14 1.23618e-13 4.25197e-05)
(-5.03601e-14 1.16328e-13 4.25197e-05)
(-4.7784e-14 1.11784e-13 4.25197e-05)
(-4.15453e-14 1.08366e-13 4.25197e-05)
(-4.2777e-14 1.01828e-13 4.25197e-05)
(-4.52623e-14 9.51274e-14 4.25197e-05)
(-4.11566e-14 9.23865e-14 4.25197e-05)
(-3.99145e-14 9.00666e-14 4.25197e-05)
(-4.85363e-14 8.32267e-14 4.25197e-05)
(-5.44405e-14 7.47569e-14 4.25197e-05)
(-4.41973e-14 7.12957e-14 4.25197e-05)
(-2.55492e-14 7.36543e-14 4.25197e-05)
(-1.91468e-14 7.54279e-14 4.25197e-05)
(-3.32854e-14 7.06345e-14 4.25197e-05)
(-5.40898e-14 6.02015e-14 4.25197e-05)
(-6.00798e-14 5.09301e-14 4.25197e-05)
(-4.2856e-14 4.88728e-14 4.25197e-05)
(-1.37804e-14 5.42702e-14 4.25197e-05)
(5.70703e-15 6.14556e-14 4.25197e-05)
(3.39826e-16 6.30855e-14 4.25197e-05)
(-2.81256e-14 5.54153e-14 4.25197e-05)
(-6.2314e-14 4.11195e-14 4.25197e-05)
(-8.06669e-14 2.74978e-14 4.25197e-05)
(-7.12411e-14 2.17397e-14 4.25197e-05)
(-3.96142e-14 2.6065e-14 4.25197e-05)
(-4.98749e-15 3.63268e-14 4.25197e-05)
(1.22771e-14 4.48759e-14 4.25197e-05)
(3.02168e-15 4.55544e-14 4.25197e-05)
(-2.56028e-14 3.74994e-14 4.25197e-05)
(-5.5318e-14 2.55233e-14 4.25197e-05)
(-6.80341e-14 1.68317e-14 4.25197e-05)
(-5.58362e-14 1.66809e-14 4.25197e-05)
(-2.42663e-14 2.53476e-14 4.25197e-05)
(1.23178e-14 3.81437e-14 4.25197e-05)
(3.9471e-14 4.82207e-14 4.25197e-05)
(4.93583e-14 5.02596e-14 4.25197e-05)
(4.23358e-14 4.29641e-14 4.25197e-05)
(2.34286e-14 2.90268e-14 4.25197e-05)
(-2.52914e-15 1.31442e-14 4.25197e-05)
(-3.356e-14 -3.30723e-16 4.25197e-05)
(-7.03195e-14 -9.08825e-15 4.25197e-05)
(-1.12502e-13 -1.32161e-14 4.25197e-05)
(-1.54908e-13 -1.42087e-14 4.25197e-05)
(-1.85882e-13 -1.29839e-14 4.25197e-05)
(-1.90078e-13 -8.80186e-15 4.25197e-05)
(-1.54297e-13 5.54264e-16 4.25197e-05)
(-7.28572e-14 1.71261e-14 4.25197e-05)
(4.74186e-14 4.15162e-14 4.25197e-05)
(1.85064e-13 7.16053e-14 4.25197e-05)
(3.06385e-13 1.01507e-13 4.25197e-05)
(3.74199e-13 1.22586e-13 4.25197e-05)
(3.58838e-13 1.25609e-13 4.25197e-05)
(2.47056e-13 1.04456e-13 4.25197e-05)
(4.79717e-14 5.80092e-14 4.25197e-05)
(-2.06082e-13 -8.49953e-15 4.25197e-05)
(-4.63976e-13 -8.33937e-14 4.25197e-05)
(-6.67137e-13 -1.50848e-13 4.25197e-05)
(-7.62355e-13 -1.93663e-13 4.25197e-05)
(-7.13712e-13 -1.98234e-13 4.25197e-05)
(-5.11458e-13 -1.57018e-13 4.25197e-05)
(-1.76475e-13 -7.14151e-14 4.25197e-05)
(2.40049e-13 4.80899e-14 4.25197e-05)
(6.65006e-13 1.8332e-13 4.25197e-05)
(1.01552e-12 3.09915e-13 4.25197e-05)
(1.21626e-12 4.02658e-13 4.25197e-05)
(1.21381e-12 4.39877e-13 4.25197e-05)
(9.87085e-13 4.09375e-13 4.25197e-05)
(5.54114e-13 3.08454e-13 4.25197e-05)
(-2.74188e-14 1.45443e-13 4.25197e-05)
(-6.66259e-13 -6.00857e-14 4.25197e-05)
(-1.25471e-12 -2.77157e-13 4.25197e-05)
(-1.68532e-12 -4.68759e-13 4.25197e-05)
(-1.86836e-12 -6.01536e-13 4.25197e-05)
(-1.74744e-12 -6.48412e-13 4.25197e-05)
(-1.31359e-12 -5.9304e-13 4.25197e-05)
(-6.12477e-13 -4.33707e-13 4.25197e-05)
(2.64286e-13 -1.89595e-13 4.25197e-05)
(1.19086e-12 1.0375e-13 4.25197e-05)
(2.02484e-12 4.02448e-13 4.25197e-05)
(2.62585e-12 6.58469e-13 4.25197e-05)
(2.88249e-12 8.26132e-13 4.25197e-05)
(2.73261e-12 8.68553e-13 4.25197e-05)
(2.17405e-12 7.69431e-13 4.25197e-05)
(1.26666e-12 5.33785e-13 4.25197e-05)
(1.25536e-13 1.88141e-13 4.25197e-05)
(-1.08999e-12 -2.23954e-13 4.25197e-05)
(-2.19917e-12 -6.46323e-13 4.25197e-05)
(-3.01971e-12 -1.0138e-12 4.25197e-05)
(-3.39047e-12 -1.25981e-12 4.25197e-05)
(-3.17842e-12 -1.31984e-12 4.25197e-05)
(-2.26868e-12 -1.13534e-12 4.25197e-05)
(-5.2606e-13 -6.37559e-13 4.25197e-05)
(2.29588e-12 2.77357e-13 4.25197e-05)
(6.72827e-12 1.80104e-12 4.25197e-05)
(1.39198e-11 4.31826e-12 4.25197e-05)
(2.62269e-11 8.61333e-12 4.25196e-05)
(4.83412e-11 1.62504e-11 4.25196e-05)
(8.94151e-11 3.02805e-11 4.25195e-05)
(1.67137e-10 5.66147e-11 4.25193e-05)
(3.15386e-10 1.06599e-10 4.2519e-05)
(5.98902e-10 2.01942e-10 4.25183e-05)
(1.14146e-09 3.84177e-10 4.2517e-05)
(2.17909e-09 7.32493e-10 4.25145e-05)
(4.16136e-09 1.39774e-09 4.25097e-05)
(7.94645e-09 2.66773e-09 4.25006e-05)
(1.51629e-08 5.08879e-09 4.24831e-05)
(2.89001e-08 9.69616e-09 4.24501e-05)
(5.49899e-08 1.84473e-08 4.23861e-05)
(1.044e-07 3.50112e-08 4.22681e-05)
(1.9715e-07 6.61299e-08 4.20316e-05)
(3.72335e-07 1.24813e-07 4.16314e-05)
(6.81768e-07 2.2884e-07 4.07159e-05)
(1.33711e-06 4.47897e-07 3.96295e-05)
(1.85096e-06 6.24212e-07 3.52711e-05)
(7.26825e-06 2.42195e-06 3.72424e-05)
(-3.31067e-14 1.92035e-13 3.97247e-05)
(-4.18168e-14 1.85863e-13 3.97247e-05)
(-4.30239e-14 1.78336e-13 3.97247e-05)
(-4.37679e-14 1.70932e-13 3.97247e-05)
(-4.21955e-14 1.63771e-13 3.97247e-05)
(-4.07405e-14 1.56776e-13 3.97247e-05)
(-4.4093e-14 1.49569e-13 3.97247e-05)
(-4.28803e-14 1.43507e-13 3.97247e-05)
(-3.85492e-14 1.37688e-13 3.97247e-05)
(-4.04287e-14 1.30664e-13 3.97247e-05)
(-4.16766e-14 1.2458e-13 3.97247e-05)
(-3.5802e-14 1.21049e-13 3.97247e-05)
(-3.44938e-14 1.17043e-13 3.97247e-05)
(-4.48261e-14 1.0983e-13 3.97247e-05)
(-5.1696e-14 1.0207e-13 3.97247e-05)
(-4.0149e-14 9.8297e-14 3.97247e-05)
(-1.99983e-14 9.84589e-14 3.97247e-05)
(-1.47533e-14 9.76882e-14 3.97247e-05)
(-3.19815e-14 9.2e-14 3.97247e-05)
(-5.35634e-14 8.28867e-14 3.97247e-05)
(-5.50132e-14 7.58148e-14 3.97247e-05)
(-3.00875e-14 7.48292e-14 3.97247e-05)
(3.51824e-15 7.89012e-14 3.97247e-05)
(1.90616e-14 8.27456e-14 3.97247e-05)
(1.74715e-15 8.07748e-14 3.97247e-05)
(-3.99693e-14 7.13918e-14 3.97247e-05)
(-8.00746e-14 5.82803e-14 3.97247e-05)
(-9.24822e-14 4.78784e-14 3.97247e-05)
(-6.83119e-14 4.50861e-14 3.97247e-05)
(-2.2007e-14 4.99287e-14 3.97247e-05)
(1.81809e-14 5.75869e-14 3.97247e-05)
(2.84096e-14 6.17493e-14 3.97247e-05)
(3.74275e-15 5.86733e-14 3.97247e-05)
(-3.94918e-14 4.95263e-14 3.97247e-05)
(-7.4427e-14 3.94872e-14 3.97247e-05)
(-7.96963e-14 3.43458e-14 3.97247e-05)
(-5.07031e-14 3.7084e-14 3.97247e-05)
(-4.05128e-16 4.61804e-14 3.97247e-05)
(4.9517e-14 5.66078e-14 3.97247e-05)
(8.06995e-14 6.26603e-14 3.97247e-05)
(8.54839e-14 6.0859e-14 3.97247e-05)
(6.68084e-14 5.15356e-14 3.97247e-05)
(3.22358e-14 3.7979e-14 3.97247e-05)
(-1.22221e-14 2.44458e-14 3.97247e-05)
(-6.43732e-14 1.40713e-14 3.97247e-05)
(-1.23845e-13 7.98529e-15 3.97247e-05)
(-1.8681e-13 5.4053e-15 3.97247e-05)
(-2.41552e-13 4.70646e-15 3.97247e-05)
(-2.6831e-13 5.28821e-15 3.97247e-05)
(-2.4526e-13 8.23374e-15 3.97247e-05)
(-1.57771e-13 1.61138e-14 3.97247e-05)
(-6.36464e-15 3.09655e-14 3.97247e-05)
(1.88202e-13 5.31717e-14 3.97247e-05)
(3.8522e-13 8.03439e-14 3.97247e-05)
(5.31244e-13 1.06575e-13 3.97247e-05)
(5.74852e-13 1.23865e-13 3.97247e-05)
(4.82474e-13 1.23853e-13 3.97247e-05)
(2.50207e-13 1.01587e-13 3.97247e-05)
(-9.1353e-14 5.67626e-14 3.97247e-05)
(-4.80188e-13 -4.99649e-15 3.97247e-05)
(-8.33438e-13 -7.25094e-14 3.97247e-05)
(-1.06591e-12 -1.31493e-13 3.97247e-05)
(-1.10896e-12 -1.6659e-13 3.97247e-05)
(-9.27406e-13 -1.66173e-13 3.97247e-05)
(-5.29175e-13 -1.24094e-13 3.97247e-05)
(3.24083e-14 -4.28853e-14 3.97247e-05)
(6.64208e-13 6.69232e-14 3.97247e-05)
(1.24921e-12 1.88491e-13 3.97247e-05)
(1.66688e-12 2.9984e-13 3.97247e-05)
(1.81899e-12 3.78569e-13 3.97247e-05)
(1.64908e-12 4.05723e-13 3.97247e-05)
(1.15473e-12 3.71613e-13 3.97247e-05)
(3.92377e-13 2.75166e-13 3.97247e-05)
(-5.27139e-13 1.24904e-13 3.97247e-05)
(-1.45325e-12 -6.10115e-14 3.97247e-05)
(-2.2232e-12 -2.5451e-13 3.97247e-05)
(-2.68878e-12 -4.22655e-13 3.97247e-05)
(-2.74115e-12 -5.36392e-13 3.97247e-05)
(-2.33145e-12 -5.72739e-13 3.97247e-05)
(-1.48596e-12 -5.1864e-13 3.97247e-05)
(-3.08397e-13 -3.73562e-13 3.97247e-05)
(1.03665e-12 -1.552e-13 3.97247e-05)
(2.34719e-12 1.04769e-13 3.97247e-05)
(3.413e-12 3.67286e-13 3.97247e-05)
(4.04644e-12 5.89951e-13 3.97247e-05)
(4.11798e-12 7.33035e-13 3.97247e-05)
(3.58042e-12 7.64473e-13 3.97247e-05)
(2.47965e-12 6.70438e-13 3.97247e-05)
(9.49919e-13 4.55802e-13 3.97247e-05)
(-8.03162e-13 1.45144e-13 3.97247e-05)
(-2.52725e-12 -2.22024e-13 3.97247e-05)
(-3.95816e-12 -5.95725e-13 3.97247e-05)
(-4.85034e-12 -9.1856e-13 3.97247e-05)
(-5.00689e-12 -1.13206e-12 3.97247e-05)
(-4.28572e-12 -1.17991e-12 3.97247e-05)
(-2.57847e-12 -1.012e-12 3.97247e-05)
(2.53609e-13 -5.70231e-13 3.97247e-05)
(4.51796e-12 2.34945e-13 3.97247e-05)
(1.09483e-11 1.57128e-12 3.97247e-05)
(2.11757e-11 3.77686e-12 3.97247e-05)
(3.85842e-11 7.5376e-12 3.97246e-05)
(6.99182e-11 1.42197e-11 3.97246e-05)
(1.2833e-10 2.64887e-11 3.97245e-05)
(2.39212e-10 4.95097e-11 3.97244e-05)
(4.51161e-10 9.31951e-11 3.97242e-05)
(8.5703e-10 1.76508e-10 3.97237e-05)
(1.63436e-09 3.35722e-10 3.97227e-05)
(3.12191e-09 6.40014e-10 3.97209e-05)
(5.96532e-09 1.22121e-09 3.97175e-05)
(1.13993e-08 2.33099e-09 3.97109e-05)
(2.17688e-08 4.44788e-09 3.96983e-05)
(4.1544e-08 8.48031e-09 3.96746e-05)
(7.91714e-08 1.61554e-08 3.9628e-05)
(1.50735e-07 3.0721e-08 3.95431e-05)
(2.85609e-07 5.8253e-08 3.93672e-05)
(5.42988e-07 1.10515e-07 3.90814e-05)
(9.99347e-07 2.04236e-07 3.83617e-05)
(2.00041e-06 4.06708e-07 3.76424e-05)
(2.69457e-06 5.57464e-07 3.38209e-05)
(1.1669e-05 2.3551e-06 3.64807e-05)
(-2.62559e-14 1.86629e-13 3.55292e-05)
(-3.2931e-14 1.81643e-13 3.55292e-05)
(-3.46782e-14 1.7458e-13 3.55292e-05)
(-3.60697e-14 1.67315e-13 3.55292e-05)
(-3.58696e-14 1.60199e-13 3.55292e-05)
(-3.32695e-14 1.5374e-13 3.55292e-05)
(-3.30351e-14 1.47477e-13 3.55292e-05)
(-3.31922e-14 1.41062e-13 3.55292e-05)
(-3.3342e-14 1.34363e-13 3.55292e-05)
(-3.53028e-14 1.27932e-13 3.55292e-05)
(-3.4065e-14 1.22927e-13 3.55292e-05)
(-2.82186e-14 1.19157e-13 3.55292e-05)
(-2.75752e-14 1.14618e-13 3.55292e-05)
(-3.60442e-14 1.08302e-13 3.55292e-05)
(-4.11555e-14 1.02155e-13 3.55292e-05)
(-3.19699e-14 9.86746e-14 3.55292e-05)
(-1.70968e-14 9.74151e-14 3.55292e-05)
(-1.46943e-14 9.52218e-14 3.55292e-05)
(-2.87376e-14 8.99507e-14 3.55292e-05)
(-4.27358e-14 8.31742e-14 3.55292e-05)
(-3.76514e-14 7.86996e-14 3.55292e-05)
(-1.24135e-14 7.86221e-14 3.55292e-05)
(1.38945e-14 8.12096e-14 3.55292e-05)
(1.80602e-14 8.22214e-14 3.55292e-05)
(-8.14155e-15 7.82e-14 3.55292e-05)
(-5.05783e-14 6.92565e-14 3.55292e-05)
(-8.21624e-14 5.91523e-14 3.55292e-05)
(-8.14526e-14 5.25881e-14 3.55292e-05)
(-4.73423e-14 5.20343e-14 3.55292e-05)
(-2.63331e-16 5.60465e-14 3.55292e-05)
(3.10743e-14 6.0325e-14 3.55292e-05)
(2.80982e-14 6.07251e-14 3.55292e-05)
(-6.46212e-15 5.59353e-14 3.55292e-05)
(-5.08917e-14 4.82911e-14 3.55292e-05)
(-7.80978e-14 4.22027e-14 3.55292e-05)
(-7.11904e-14 4.12257e-14 3.55292e-05)
(-3.16718e-14 4.59616e-14 3.55292e-05)
(2.33426e-14 5.37529e-14 3.55292e-05)
(7.17626e-14 6.02089e-14 3.55292e-05)
(9.77299e-14 6.15812e-14 3.55292e-05)
(9.65472e-14 5.65025e-14 3.55292e-05)
(7.23187e-14 4.66181e-14 3.55292e-05)
(3.14413e-14 3.53457e-14 3.55292e-05)
(-2.21884e-14 2.59671e-14 3.55292e-05)
(-8.72579e-14 2.01202e-14 3.55292e-05)
(-1.61182e-13 1.76639e-14 3.55292e-05)
(-2.34719e-13 1.73661e-14 3.55292e-05)
(-2.89272e-13 1.76458e-14 3.55292e-05)
(-2.99735e-13 1.8022e-14 3.55292e-05)
(-2.43344e-13 1.96077e-14 3.55292e-05)
(-1.10359e-13 2.50553e-14 3.55292e-05)
(8.80675e-14 3.64968e-14 3.55292e-05)
(3.17292e-13 5.40618e-14 3.55292e-05)
(5.23482e-13 7.55381e-14 3.55292e-05)
(6.45283e-13 9.58812e-14 3.55292e-05)
(6.31655e-13 1.08737e-13 3.55292e-05)
(4.58281e-13 1.07227e-13 3.55292e-05)
(1.37898e-13 8.72857e-14 3.55292e-05)
(-2.787e-13 4.92047e-14 3.55292e-05)
(-7.102e-13 -1.96534e-15 3.55292e-05)
(-1.06016e-12 -5.66185e-14 3.55292e-05)
(-1.23887e-12 -1.03467e-13 3.55292e-05)
(-1.18352e-12 -1.29918e-13 3.55292e-05)
(-8.74947e-13 -1.26288e-13 3.55292e-05)
(-3.44564e-13 -8.79256e-14 3.55292e-05)
(3.27343e-13 -1.76513e-14 3.55292e-05)
(1.02294e-12 7.45415e-14 3.55292e-05)
(1.60801e-12 1.74903e-13 3.55292e-05)
(1.95593e-12 2.65348e-13 3.55292e-05)
(1.97536e-12 3.27506e-13 3.55292e-05)
(1.62885e-12 3.45703e-13 3.55292e-05)
(9.42884e-13 3.12831e-13 3.55292e-05)
(7.58663e-15 2.29547e-13 3.55292e-05)
(-1.03348e-12 1.03429e-13 3.55292e-05)
(-2.00404e-12 -5.0728e-14 3.55292e-05)
(-2.7272e-12 -2.10262e-13 3.55292e-05)
(-3.05536e-12 -3.4793e-13 3.55292e-05)
(-2.89591e-12 -4.40507e-13 3.55292e-05)
(-2.23052e-12 -4.70539e-13 3.55292e-05)
(-1.12604e-12 -4.28649e-13 3.55292e-05)
(2.70626e-13 -3.13873e-13 3.55292e-05)
(1.75544e-12 -1.39296e-13 3.55292e-05)
(3.09813e-12 6.99122e-14 3.55292e-05)
(4.07588e-12 2.82441e-13 3.55292e-05)
(4.50842e-12 4.64173e-13 3.55292e-05)
(4.29213e-12 5.83738e-13 3.55292e-05)
(3.42032e-12 6.13795e-13 3.55292e-05)
(1.98874e-12 5.40949e-13 3.55292e-05)
(1.82268e-13 3.67371e-13 3.55292e-05)
(-1.74857e-12 1.12667e-13 3.55292e-05)
(-3.52012e-12 -1.90035e-13 3.55292e-05)
(-4.85414e-12 -5.00206e-13 3.55292e-05)
(-5.51062e-12 -7.70637e-13 3.55292e-05)
(-5.31581e-12 -9.52789e-13 3.55292e-05)
(-4.1624e-12 -9.99159e-13 3.55292e-05)
(-1.98017e-12 -8.69007e-13 3.55292e-05)
(1.3416e-12 -5.17238e-13 3.55292e-05)
(6.11291e-12 1.26453e-13 3.55292e-05)
(1.31351e-11 1.1972e-12 3.55292e-05)
(2.42226e-11 2.96498e-12 3.55292e-05)
(4.31504e-11 5.9731e-12 3.55292e-05)
(7.74265e-11 1.13023e-11 3.55291e-05)
(1.41663e-10 2.10626e-11 3.55291e-05)
(2.64029e-10 3.93438e-11 3.5529e-05)
(4.98397e-10 7.39907e-11 3.55289e-05)
(9.477e-10 1.40008e-10 3.55286e-05)
(1.8088e-09 2.66092e-10 3.55282e-05)
(3.45776e-09 5.06962e-10 3.55272e-05)
(6.61163e-09 9.66914e-10 3.55254e-05)
(1.26458e-08 1.84514e-09 3.5522e-05)
(2.41722e-08 3.52103e-09 3.55154e-05)
(4.62102e-08 6.7157e-09 3.55031e-05)
(8.82218e-08 1.28102e-08 3.54782e-05)
(1.68613e-07 2.4403e-08 3.54346e-05)
(3.2071e-07 4.65006e-08 3.53356e-05)
(6.15495e-07 8.87047e-08 3.51978e-05)
(1.14014e-06 1.65977e-07 3.47346e-05)
(2.35933e-06 3.38914e-07 3.4524e-05)
(3.02913e-06 4.50166e-07 3.14519e-05)
(1.54798e-05 2.2036e-06 3.52446e-05)
(-1.26681e-13 7.59423e-14 4.25197e-05)
(-1.29049e-13 6.6011e-14 4.25197e-05)
(-1.27085e-13 6.1456e-14 4.25197e-05)
(-1.24351e-13 5.68198e-14 4.25197e-05)
(-1.21467e-13 5.3596e-14 4.25197e-05)
(-1.19132e-13 4.90862e-14 4.25197e-05)
(-1.17813e-13 4.08614e-14 4.25197e-05)
(-1.14427e-13 4.04627e-14 4.25197e-05)
(-1.09787e-13 4.35093e-14 4.25197e-05)
(-1.07535e-13 3.67833e-14 4.25197e-05)
(-1.05925e-13 2.87711e-14 4.25197e-05)
(-1.02665e-13 3.15814e-14 4.25197e-05)
(-1.00481e-13 3.41211e-14 4.25197e-05)
(-1.01236e-13 2.31842e-14 4.25197e-05)
(-1.00568e-13 9.011e-15 4.25197e-05)
(-9.42917e-14 1.0508e-14 4.25197e-05)
(-8.53996e-14 2.67461e-14 4.25197e-05)
(-8.1307e-14 3.75292e-14 4.25197e-05)
(-8.48818e-14 2.76977e-14 4.25197e-05)
(-9.10387e-14 3.96474e-15 4.25197e-05)
(-9.16603e-14 -1.29038e-14 4.25197e-05)
(-8.32859e-14 -7.96629e-15 4.25197e-05)
(-6.98613e-14 1.56864e-14 4.25197e-05)
(-5.96249e-14 4.04016e-14 4.25197e-05)
(-5.88898e-14 4.6821e-14 4.25197e-05)
(-6.77997e-14 2.78033e-14 4.25197e-05)
(-8.01427e-14 -6.7997e-15 4.25197e-05)
(-8.74101e-14 -3.65394e-14 4.25197e-05)
(-8.40925e-14 -4.35377e-14 4.25197e-05)
(-7.1219e-14 -2.43174e-14 4.25197e-05)
(-5.55034e-14 7.96628e-15 4.25197e-05)
(-4.50953e-14 3.25765e-14 4.25197e-05)
(-4.46235e-14 3.4154e-14 4.25197e-05)
(-5.27872e-14 1.23434e-14 4.25197e-05)
(-6.35183e-14 -1.86328e-14 4.25197e-05)
(-6.98848e-14 -3.93671e-14 4.25197e-05)
(-6.79882e-14 -3.65081e-14 4.25197e-05)
(-5.85987e-14 -1.00407e-14 4.25197e-05)
(-4.59341e-14 2.76519e-14 4.25197e-05)
(-3.46479e-14 5.94124e-14 4.25197e-05)
(-2.73533e-14 7.21121e-14 4.25197e-05)
(-2.41369e-14 6.23001e-14 4.25197e-05)
(-2.37631e-14 3.52692e-14 4.25197e-05)
(-2.55946e-14 6.28172e-16 4.25197e-05)
(-3.02782e-14 -3.33604e-14 4.25197e-05)
(-3.96338e-14 -6.23036e-14 4.25197e-05)
(-5.48658e-14 -8.59049e-14 4.25197e-05)
(-7.4888e-14 -1.04722e-13 4.25197e-05)
(-9.54256e-14 -1.16291e-13 4.25197e-05)
(-1.09778e-13 -1.14513e-13 4.25197e-05)
(-1.1126e-13 -9.03587e-14 4.25197e-05)
(-9.48091e-14 -3.79298e-14 4.25197e-05)
(-5.96448e-14 4.31124e-14 4.25197e-05)
(-1.04555e-14 1.42962e-13 4.25197e-05)
(4.21933e-14 2.4098e-13 4.25197e-05)
(8.43712e-14 3.10409e-13 4.25197e-05)
(1.03131e-13 3.23552e-13 4.25197e-05)
(8.93311e-14 2.63725e-13 4.25197e-05)
(4.12366e-14 1.2822e-13 4.25197e-05)
(-3.50598e-14 -6.53627e-14 4.25197e-05)
(-1.25134e-13 -2.82159e-13 4.25197e-05)
(-2.09712e-13 -4.76766e-13 4.25197e-05)
(-2.68988e-13 -6.00409e-13 4.25197e-05)
(-2.86202e-13 -6.15744e-13 4.25197e-05)
(-2.5212e-13 -5.00943e-13 4.25197e-05)
(-1.66152e-13 -2.62241e-13 4.25197e-05)
(-3.92593e-14 6.98679e-14 4.25197e-05)
(1.0862e-13 4.42469e-13 4.25197e-05)
(2.51226e-13 7.8716e-13 4.25197e-05)
(3.616e-13 1.03439e-12 4.25197e-05)
(4.17347e-13 1.1231e-12 4.25197e-05)
(4.03049e-13 1.02165e-12 4.25197e-05)
(3.15349e-13 7.25354e-13 4.25197e-05)
(1.63236e-13 2.64904e-13 4.25197e-05)
(-3.03563e-14 -2.98872e-13 4.25197e-05)
(-2.34614e-13 -8.77558e-13 4.25197e-05)
(-4.14721e-13 -1.37003e-12 4.25197e-05)
(-5.36583e-13 -1.68745e-12 4.25197e-05)
(-5.72779e-13 -1.7585e-12 4.25197e-05)
(-5.07158e-13 -1.5493e-12 4.25197e-05)
(-3.42179e-13 -1.06488e-12 4.25197e-05)
(-9.51921e-14 -3.64603e-13 4.25197e-05)
(2.01533e-13 4.54515e-13 4.25197e-05)
(5.0643e-13 1.27096e-12 4.25197e-05)
(7.71487e-13 1.95349e-12 4.25197e-05)
(9.51579e-13 2.38503e-12 4.25197e-05)
(1.01405e-12 2.47393e-12 4.25197e-05)
(9.41727e-13 2.18544e-12 4.25197e-05)
(7.37652e-13 1.53575e-12 4.25197e-05)
(4.21974e-13 6.04208e-13 4.25197e-05)
(3.49941e-14 -4.86102e-13 4.25197e-05)
(-3.7057e-13 -1.57939e-12 4.25197e-05)
(-7.3362e-13 -2.50049e-12 4.25197e-05)
(-9.93043e-13 -3.07629e-12 4.25197e-05)
(-1.09129e-12 -3.13778e-12 4.25197e-05)
(-9.69602e-13 -2.53424e-12 4.25197e-05)
(-5.60365e-13 -1.07947e-12 4.25197e-05)
(2.40914e-13 1.52249e-12 4.25197e-05)
(1.62479e-12 5.85217e-12 4.25197e-05)
(3.98327e-12 1.30853e-11 4.25197e-05)
(8.11455e-12 2.55827e-11 4.25196e-05)
(1.55985e-11 4.80236e-11 4.25196e-05)
(2.95045e-11 8.95234e-11 4.25195e-05)
(5.57609e-11 1.6772e-10 4.25193e-05)
(1.05735e-10 3.16422e-10 4.2519e-05)
(2.01152e-10 6.00299e-10 4.25183e-05)
(3.83549e-10 1.14307e-09 4.2517e-05)
(7.32107e-10 2.18072e-09 4.25145e-05)
(1.39766e-09 4.16282e-09 4.25097e-05)
(2.66797e-09 7.94754e-09 4.25006e-05)
(5.08937e-09 1.51635e-08 4.24831e-05)
(9.69703e-09 2.89001e-08 4.24501e-05)
(1.84484e-08 5.49892e-08 4.23861e-05)
(3.50124e-08 1.04399e-07 4.22681e-05)
(6.61311e-08 1.97149e-07 4.20316e-05)
(1.24815e-07 3.72333e-07 4.16314e-05)
(2.28841e-07 6.81766e-07 4.07159e-05)
(4.47897e-07 1.33711e-06 3.96295e-05)
(6.24212e-07 1.85096e-06 3.52711e-05)
(2.42195e-06 7.26825e-06 3.72424e-05)
(-1.12287e-13 1.43807e-13 4.1124e-05)
(-1.17746e-13 1.34303e-13 4.1124e-05)
(-1.16477e-13 1.27845e-13 4.1124e-05)
(-1.14546e-13 1.21275e-13 4.1124e-05)
(-1.11364e-13 1.16001e-13 4.1124e-05)
(-1.08776e-13 1.10214e-13 4.1124e-05)
(-1.09216e-13 1.01658e-13 4.1124e-05)
(-1.05766e-13 9.85451e-14 4.1124e-05)
(-1.00203e-13 9.76149e-14 4.1124e-05)
(-9.92594e-14 8.95542e-14 4.1124e-05)
(-9.81354e-14 8.15999e-14 4.1124e-05)
(-9.26999e-14 8.26154e-14 4.1124e-05)
(-9.11628e-14 8.29072e-14 4.1124e-05)
(-9.72409e-14 7.1811e-14 4.1124e-05)
(-9.93775e-14 5.81558e-14 4.1124e-05)
(-8.7653e-14 5.76218e-14 4.1124e-05)
(-7.06668e-14 6.92352e-14 4.1124e-05)
(-6.60947e-14 7.60163e-14 4.1124e-05)
(-7.9028e-14 6.56638e-14 4.1124e-05)
(-9.51557e-14 4.45578e-14 4.1124e-05)
(-9.55087e-14 3.06707e-14 4.1124e-05)
(-7.48007e-14 3.60191e-14 4.1124e-05)
(-4.61288e-14 5.63938e-14 4.1124e-05)
(-3.01953e-14 7.52899e-14 4.1124e-05)
(-3.95126e-14 7.6181e-14 4.1124e-05)
(-6.91212e-14 5.46963e-14 4.1124e-05)
(-1.00061e-13 2.18525e-14 4.1124e-05)
(-1.11844e-13 -3.27834e-15 4.1124e-05)
(-9.58969e-14 -6.04166e-15 4.1124e-05)
(-6.11934e-14 1.39607e-14 4.1124e-05)
(-2.82374e-14 4.26127e-14 4.1124e-05)
(-1.57872e-14 6.08419e-14 4.1124e-05)
(-2.95509e-14 5.66126e-14 4.1124e-05)
(-5.92441e-14 3.23918e-14 4.1124e-05)
(-8.57056e-14 3.14102e-15 4.1124e-05)
(-9.24643e-14 -1.33393e-14 4.1124e-05)
(-7.47421e-14 -6.59099e-15 4.1124e-05)
(-4.07345e-14 2.0968e-14 4.1124e-05)
(-5.56837e-15 5.62472e-14 4.1124e-05)
(1.76525e-14 8.32521e-14 4.1124e-05)
(2.35657e-14 9.10406e-14 4.1124e-05)
(1.47005e-14 7.80374e-14 4.1124e-05)
(-3.0616e-15 5.03062e-14 4.1124e-05)
(-2.54989e-14 1.69881e-14 4.1124e-05)
(-5.22182e-14 -1.47919e-14 4.1124e-05)
(-8.54679e-14 -4.18326e-14 4.1124e-05)
(-1.25736e-13 -6.43806e-14 4.1124e-05)
(-1.67577e-13 -8.28152e-14 4.1124e-05)
(-1.98496e-13 -9.39998e-14 4.1124e-05)
(-2.02259e-13 -9.12973e-14 4.1124e-05)
(-1.65353e-13 -6.57832e-14 4.1124e-05)
(-8.23281e-14 -1.20997e-14 4.1124e-05)
(3.89352e-14 6.88925e-14 4.1124e-05)
(1.75645e-13 1.6626e-13 4.1124e-05)
(2.93226e-13 2.58609e-13 4.1124e-05)
(3.54627e-13 3.19573e-13 4.1124e-05)
(3.31716e-13 3.23311e-13 4.1124e-05)
(2.13352e-13 2.55486e-13 4.1124e-05)
(1.11755e-14 1.16122e-13 4.1124e-05)
(-2.40602e-13 -7.56027e-14 4.1124e-05)
(-4.90133e-13 -2.84113e-13 4.1124e-05)
(-6.79699e-13 -4.65074e-13 4.1124e-05)
(-7.58741e-13 -5.72479e-13 4.1124e-05)
(-6.94495e-13 -5.72434e-13 4.1124e-05)
(-4.81001e-13 -4.47236e-13 4.1124e-05)
(-1.42042e-13 -2.05688e-13 4.1124e-05)
(2.69038e-13 1.19644e-13 4.1124e-05)
(6.78865e-13 4.75934e-13 4.1124e-05)
(1.00674e-12 7.96891e-13 4.1124e-05)
(1.18102e-12 1.01694e-12 4.1124e-05)
(1.15349e-12 1.08056e-12 4.1124e-05)
(9.07678e-13 9.60384e-13 4.1124e-05)
(4.66467e-13 6.56203e-13 4.1124e-05)
(-1.09201e-13 2.01296e-13 4.1124e-05)
(-7.26935e-13 -3.42341e-13 4.1124e-05)
(-1.28102e-12 -8.88597e-13 4.1124e-05)
(-1.66937e-12 -1.34168e-12 4.1124e-05)
(-1.80824e-12 -1.61856e-12 4.1124e-05)
(-1.64906e-12 -1.65511e-12 4.1124e-05)
(-1.19044e-12 -1.42415e-12 4.1124e-05)
(-4.84581e-13 -9.37122e-13 4.1124e-05)
(3.74701e-13 -2.55326e-13 4.1124e-05)
(1.2634e-12 5.25552e-13 4.1124e-05)
(2.0434e-12 1.28874e-12 4.1124e-05)
(2.58209e-12 1.91014e-12 4.1124e-05)
(2.7774e-12 2.28171e-12 4.1124e-05)
(2.57852e-12 2.32266e-12 4.1124e-05)
(1.99164e-12 2.00659e-12 4.1124e-05)
(1.08257e-12 1.35623e-12 4.1124e-05)
(-3.19703e-14 4.51671e-13 4.1124e-05)
(-1.19467e-12 -5.86044e-13 4.1124e-05)
(-2.23075e-12 -1.6077e-12 4.1124e-05)
(-2.96907e-12 -2.44863e-12 4.1124e-05)
(-3.26203e-12 -2.94924e-12 4.1124e-05)
(-2.99357e-12 -2.95737e-12 4.1124e-05)
(-2.06549e-12 -2.33774e-12 4.1124e-05)
(-3.63151e-13 -9.23678e-13 4.1124e-05)
(2.33129e-12 1.55431e-12 4.1124e-05)
(6.50711e-12 5.63405e-12 4.1124e-05)
(1.3231e-11 1.24093e-11 4.1124e-05)
(2.4708e-11 2.40885e-11 4.11239e-05)
(4.53285e-11 4.5049e-11 4.11239e-05)
(8.36594e-11 8.38186e-11 4.11238e-05)
(1.56254e-10 1.56898e-10 4.11237e-05)
(2.94806e-10 2.9591e-10 4.11233e-05)
(5.59868e-10 5.61335e-10 4.11228e-05)
(1.06719e-09 1.06887e-09 4.11217e-05)
(2.03751e-09 2.0392e-09 4.11195e-05)
(3.89139e-09 3.89289e-09 4.11154e-05)
(7.43193e-09 7.43305e-09 4.11077e-05)
(1.41845e-08 1.41851e-08 4.10928e-05)
(2.7046e-08 2.7046e-08 4.10646e-05)
(5.15e-08 5.14993e-08 4.10097e-05)
(9.78832e-08 9.78819e-08 4.0909e-05)
(1.85219e-07 1.85217e-07 4.0704e-05)
(3.50784e-07 3.50782e-07 4.03633e-05)
(6.44771e-07 6.44769e-07 3.95485e-05)
(1.27572e-06 1.27572e-06 3.86525e-05)
(1.75025e-06 1.75025e-06 3.45574e-05)
(7.16827e-06 7.16827e-06 3.68501e-05)
(-9.2354e-14 1.76731e-13 3.83313e-05)
(-9.84778e-14 1.68753e-13 3.83313e-05)
(-9.8138e-14 1.61355e-13 3.83313e-05)
(-9.73727e-14 1.53688e-13 3.83313e-05)
(-9.44287e-14 1.47111e-13 3.83313e-05)
(-9.05552e-14 1.41408e-13 3.83313e-05)
(-9.05686e-14 1.3441e-13 3.83313e-05)
(-8.89851e-14 1.29231e-13 3.83313e-05)
(-8.57414e-14 1.24317e-13 3.83313e-05)
(-8.54551e-14 1.16144e-13 3.83313e-05)
(-8.33226e-14 1.09786e-13 3.83313e-05)
(-7.69245e-14 1.09355e-13 3.83313e-05)
(-7.59668e-14 1.07577e-13 3.83313e-05)
(-8.37042e-14 9.77577e-14 3.83313e-05)
(-8.65262e-14 8.64375e-14 3.83313e-05)
(-7.37858e-14 8.43735e-14 3.83313e-05)
(-5.61392e-14 9.06037e-14 3.83313e-05)
(-5.34006e-14 9.30834e-14 3.83313e-05)
(-6.9308e-14 8.36203e-14 3.83313e-05)
(-8.5548e-14 6.77523e-14 3.83313e-05)
(-8.10358e-14 5.89293e-14 3.83313e-05)
(-5.34175e-14 6.48942e-14 3.83313e-05)
(-2.20048e-14 8.03656e-14 3.83313e-05)
(-1.18005e-14 9.14395e-14 3.83313e-05)
(-3.3604e-14 8.63012e-14 3.83313e-05)
(-7.5278e-14 6.43343e-14 3.83313e-05)
(-1.09947e-13 3.70233e-14 3.83313e-05)
(-1.14138e-13 2.00823e-14 3.83313e-05)
(-8.36079e-14 2.29169e-14 3.83313e-05)
(-3.63311e-14 4.21924e-14 3.83313e-05)
(-6.86875e-16 6.40156e-14 3.83313e-05)
(2.77563e-15 7.32346e-14 3.83313e-05)
(-2.62949e-14 6.30413e-14 3.83313e-05)
(-6.8571e-14 3.90911e-14 3.83313e-05)
(-9.75663e-14 1.57354e-14 3.83313e-05)
(-9.52018e-14 6.95953e-15 3.83313e-05)
(-6.10892e-14 1.85398e-14 3.83313e-05)
(-1.07884e-14 4.52144e-14 3.83313e-05)
(3.4388e-14 7.43555e-14 3.83313e-05)
(5.88927e-14 9.3061e-14 3.83313e-05)
(5.85944e-14 9.42463e-14 3.83313e-05)
(3.87672e-14 7.88278e-14 3.83313e-05)