/*--------------------------------*- C++ -*----------------------------------*\
  =========                 |
  \\      /  F ield         | OpenFOAM: The Open Source CFD Toolbox
   \\    /   O peration     | Website:  https://openfoam.org
    \\  /    A nd           | Version:  12
     \\/     M anipulation  |
\*---------------------------------------------------------------------------*/
FoamFile
{
    format      ascii;
    class       volScalarField;
    location    "299";
    object      p;
}
// * * * * * * * * * * * * * * * * * * * * * * * * * * * * * * * * * * * * * //

dimensions      [0 2 -2 0 0 0 0];

internalField   nonuniform List<scalar> 
23040
(
1.82805e-09
1.81751e-09
1.79153e-09
1.75878e-09
1.72763e-09
1.69864e-09
1.67053e-09
1.6437e-09
1.61868e-09
1.59526e-09
1.57305e-09
1.55184e-09
1.53148e-09
1.51183e-09
1.49275e-09
1.47417e-09
1.45601e-09
1.43822e-09
1.42075e-09
1.40357e-09
1.38664e-09
1.36996e-09
1.35348e-09
1.33721e-09
1.32112e-09
1.30519e-09
1.28942e-09
1.27379e-09
1.25829e-09
1.24292e-09
1.22766e-09
1.21251e-09
1.19747e-09
1.18252e-09
1.16765e-09
1.15287e-09
1.13817e-09
1.12354e-09
1.10898e-09
1.09449e-09
1.08006e-09
1.06569e-09
1.05137e-09
1.0371e-09
1.02289e-09
1.00872e-09
9.94589e-10
9.80503e-10
9.66457e-10
9.52446e-10
9.38471e-10
9.2453e-10
9.10618e-10
8.96737e-10
8.82885e-10
8.69058e-10
8.55256e-10
8.4148e-10
8.27724e-10
8.1399e-10
8.00278e-10
7.86584e-10
7.72907e-10
7.5925e-10
7.45607e-10
7.3198e-10
7.1837e-10
7.04771e-10
6.91186e-10
6.77616e-10
6.64055e-10
6.50506e-10
6.36969e-10
6.23441e-10
6.09922e-10
5.96415e-10
5.82914e-10
5.69421e-10
5.55939e-10
5.42461e-10
5.28991e-10
5.1553e-10
5.02072e-10
4.88621e-10
4.75178e-10
4.61738e-10
4.48303e-10
4.34875e-10
4.2145e-10
4.08029e-10
3.94614e-10
3.81201e-10
3.67792e-10
3.54389e-10
3.40987e-10
3.27588e-10
3.14195e-10
3.00802e-10
2.87412e-10
2.74027e-10
2.60642e-10
2.47259e-10
2.33881e-10
2.20503e-10
2.07126e-10
1.93754e-10
1.80382e-10
1.67011e-10
1.53644e-10
1.40277e-10
1.26911e-10
1.13548e-10
1.00185e-10
8.68226e-11
7.34636e-11
6.01038e-11
4.67447e-11
3.33891e-11
2.00289e-11
6.68378e-12
1.83542e-09
1.82245e-09
1.79241e-09
1.75769e-09
1.72632e-09
1.69716e-09
1.66888e-09
1.64216e-09
1.61737e-09
1.59415e-09
1.57211e-09
1.55105e-09
1.53082e-09
1.51126e-09
1.49227e-09
1.47375e-09
1.45564e-09
1.4379e-09
1.42047e-09
1.40332e-09
1.38642e-09
1.36976e-09
1.35331e-09
1.33705e-09
1.32097e-09
1.30506e-09
1.2893e-09
1.27368e-09
1.25819e-09
1.24283e-09
1.22758e-09
1.21244e-09
1.1974e-09
1.18245e-09
1.16759e-09
1.15282e-09
1.13812e-09
1.1235e-09
1.10894e-09
1.09446e-09
1.08003e-09
1.06566e-09
1.05134e-09
1.03708e-09
1.02286e-09
1.00869e-09
9.94567e-10
9.80482e-10
9.66438e-10
9.52429e-10
9.38454e-10
9.24514e-10
9.10604e-10
8.96723e-10
8.82872e-10
8.69046e-10
8.55245e-10
8.41469e-10
8.27714e-10
8.13981e-10
8.00269e-10
7.86575e-10
7.72899e-10
7.59243e-10
7.45601e-10
7.31974e-10
7.18364e-10
7.04766e-10
6.91181e-10
6.77611e-10
6.6405e-10
6.50501e-10
6.36965e-10
6.23437e-10
6.09918e-10
5.96411e-10
5.8291e-10
5.69418e-10
5.55936e-10
5.42458e-10
5.28988e-10
5.15527e-10
5.0207e-10
4.88619e-10
4.75176e-10
4.61736e-10
4.48301e-10
4.34873e-10
4.21448e-10
4.08027e-10
3.94613e-10
3.812e-10
3.67791e-10
3.54388e-10
3.40986e-10
3.27587e-10
3.14194e-10
3.00801e-10
2.87411e-10
2.74026e-10
2.60641e-10
2.47258e-10
2.3388e-10
2.20502e-10
2.07126e-10
1.93754e-10
1.80381e-10
1.6701e-10
1.53643e-10
1.40276e-10
1.2691e-10
1.13547e-10
1.00184e-10
8.68221e-11
7.34632e-11
6.01035e-11
4.67445e-11
3.3389e-11
2.003e-11
6.68125e-12
1.85317e-09
1.8336e-09
1.79366e-09
1.7551e-09
1.72339e-09
1.69374e-09
1.66521e-09
1.63885e-09
1.6146e-09
1.59184e-09
1.57019e-09
1.54947e-09
1.52952e-09
1.51019e-09
1.49137e-09
1.47299e-09
1.455e-09
1.43734e-09
1.41999e-09
1.4029e-09
1.38606e-09
1.36944e-09
1.35303e-09
1.3368e-09
1.32075e-09
1.30486e-09
1.28912e-09
1.27352e-09
1.25805e-09
1.2427e-09
1.22747e-09
1.21233e-09
1.1973e-09
1.18237e-09
1.16751e-09
1.15275e-09
1.13806e-09
1.12344e-09
1.10889e-09
1.0944e-09
1.07998e-09
1.06561e-09
1.0513e-09
1.03704e-09
1.02283e-09
1.00866e-09
9.94537e-10
9.80454e-10
9.66412e-10
9.52404e-10
9.38431e-10
9.24493e-10
9.10584e-10
8.96704e-10
8.82855e-10
8.69029e-10
8.55229e-10
8.41455e-10
8.27701e-10
8.13968e-10
8.00258e-10
7.86564e-10
7.72889e-10
7.59233e-10
7.45591e-10
7.31965e-10
7.18356e-10
7.04758e-10
6.91174e-10
6.77604e-10
6.64044e-10
6.50495e-10
6.36959e-10
6.23431e-10
6.09913e-10
5.96406e-10
5.82906e-10
5.69414e-10
5.55931e-10
5.42454e-10
5.28985e-10
5.15523e-10
5.02067e-10
4.88616e-10
4.75173e-10
4.61733e-10
4.48298e-10
4.34871e-10
4.21446e-10
4.08025e-10
3.9461e-10
3.81198e-10
3.67789e-10
3.54386e-10
3.40984e-10
3.27586e-10
3.14192e-10
3.00799e-10
2.87409e-10
2.74024e-10
2.60639e-10
2.47257e-10
2.33879e-10
2.20501e-10
2.07125e-10
1.93753e-10
1.8038e-10
1.6701e-10
1.53643e-10
1.40275e-10
1.26909e-10
1.13547e-10
1.00183e-10
8.68215e-11
7.34627e-11
6.0103e-11
4.67443e-11
3.33888e-11
2.00314e-11
6.67793e-12
1.88617e-09
1.84883e-09
1.79103e-09
1.74917e-09
1.71782e-09
1.68777e-09
1.65958e-09
1.63426e-09
1.611e-09
1.58902e-09
1.568e-09
1.54779e-09
1.52822e-09
1.50916e-09
1.49055e-09
1.47233e-09
1.45446e-09
1.43689e-09
1.4196e-09
1.40257e-09
1.38578e-09
1.3692e-09
1.35282e-09
1.33662e-09
1.32059e-09
1.30472e-09
1.28899e-09
1.27341e-09
1.25795e-09
1.24261e-09
1.22738e-09
1.21226e-09
1.19724e-09
1.1823e-09
1.16746e-09
1.15269e-09
1.13801e-09
1.12339e-09
1.10885e-09
1.09437e-09
1.07995e-09
1.06558e-09
1.05127e-09
1.03701e-09
1.0228e-09
1.00864e-09
9.94517e-10
9.80435e-10
9.66394e-10
9.52388e-10
9.38416e-10
9.24479e-10
9.10571e-10
8.96692e-10
8.82843e-10
8.69019e-10
8.55219e-10
8.41445e-10
8.27692e-10
8.1396e-10
8.0025e-10
7.86557e-10
7.72882e-10
7.59226e-10
7.45585e-10
7.31959e-10
7.1835e-10
7.04753e-10
6.91169e-10
6.77599e-10
6.6404e-10
6.50491e-10
6.36955e-10
6.23428e-10
6.0991e-10
5.96403e-10
5.82903e-10
5.69411e-10
5.55929e-10
5.42452e-10
5.28982e-10
5.15521e-10
5.02064e-10
4.88614e-10
4.75171e-10
4.61731e-10
4.48297e-10
4.34869e-10
4.21444e-10
4.08023e-10
3.94609e-10
3.81197e-10
3.67788e-10
3.54385e-10
3.40983e-10
3.27584e-10
3.14191e-10
3.00798e-10
2.87409e-10
2.74023e-10
2.60639e-10
2.47256e-10
2.33878e-10
2.205e-10
2.07124e-10
1.93752e-10
1.8038e-10
1.67009e-10
1.53642e-10
1.40275e-10
1.26909e-10
1.13546e-10
1.00183e-10
8.68211e-11
7.34624e-11
6.01028e-11
4.67442e-11
3.33887e-11
2.00322e-11
6.67575e-12
1.83542e-09
1.82245e-09
1.79241e-09
1.75769e-09
1.72632e-09
1.69716e-09
1.66888e-09
1.64216e-09
1.61737e-09
1.59415e-09
1.57211e-09
1.55105e-09
1.53082e-09
1.51126e-09
1.49227e-09
1.47375e-09
1.45564e-09
1.4379e-09
1.42047e-09
1.40332e-09
1.38642e-09
1.36976e-09
1.35331e-09
1.33705e-09
1.32097e-09
1.30506e-09
1.2893e-09
1.27368e-09
1.25819e-09
1.24283e-09
1.22758e-09
1.21244e-09
1.1974e-09
1.18245e-09
1.16759e-09
1.15282e-09
1.13812e-09
1.1235e-09
1.10894e-09
1.09446e-09
1.08003e-09
1.06566e-09
1.05134e-09
1.03708e-09
1.02286e-09
1.00869e-09
9.94567e-10
9.80482e-10
9.66438e-10
9.52429e-10
9.38454e-10
9.24514e-10
9.10604e-10
8.96723e-10
8.82872e-10
8.69046e-10
8.55245e-10
8.41469e-10
8.27714e-10
8.13981e-10
8.00269e-10
7.86575e-10
7.72899e-10
7.59243e-10
7.45601e-10
7.31974e-10
7.18364e-10
7.04766e-10
6.91181e-10
6.77611e-10
6.6405e-10
6.50501e-10
6.36965e-10
6.23437e-10
6.09918e-10
5.96411e-10
5.8291e-10
5.69418e-10
5.55936e-10
5.42458e-10
5.28988e-10
5.15527e-10
5.0207e-10
4.88619e-10
4.75176e-10
4.61736e-10
4.48301e-10
4.34873e-10
4.21448e-10
4.08027e-10
3.94613e-10
3.812e-10
3.67791e-10
3.54388e-10
3.40986e-10
3.27587e-10
3.14194e-10
3.00801e-10
2.87411e-10
2.74026e-10
2.60641e-10
2.47258e-10
2.3388e-10
2.20502e-10
2.07126e-10
1.93754e-10
1.80381e-10
1.6701e-10
1.53643e-10
1.40276e-10
1.2691e-10
1.13547e-10
1.00184e-10
8.68221e-11
7.34632e-11
6.01035e-11
4.67445e-11
3.3389e-11
2.003e-11
6.68125e-12
1.84055e-09
1.82526e-09
1.79231e-09
1.75668e-09
1.72543e-09
1.6962e-09
1.66786e-09
1.64127e-09
1.61665e-09
1.59355e-09
1.5716e-09
1.55063e-09
1.53047e-09
1.51097e-09
1.49202e-09
1.47354e-09
1.45546e-09
1.43774e-09
1.42032e-09
1.40319e-09
1.38631e-09
1.36966e-09
1.35322e-09
1.33697e-09
1.3209e-09
1.305e-09
1.28924e-09
1.27363e-09
1.25815e-09
1.24279e-09
1.22754e-09
1.2124e-09
1.19736e-09
1.18242e-09
1.16757e-09
1.15279e-09
1.1381e-09
1.12348e-09
1.10892e-09
1.09444e-09
1.08001e-09
1.06564e-09
1.05133e-09
1.03706e-09
1.02285e-09
1.00868e-09
9.94555e-10
9.80471e-10
9.66428e-10
9.52419e-10
9.38445e-10
9.24506e-10
9.10596e-10
8.96715e-10
8.82865e-10
8.69039e-10
8.55238e-10
8.41463e-10
8.27709e-10
8.13975e-10
8.00265e-10
7.86571e-10
7.72895e-10
7.59239e-10
7.45597e-10
7.3197e-10
7.1836e-10
7.04763e-10
6.91178e-10
6.77608e-10
6.64048e-10
6.50499e-10
6.36963e-10
6.23435e-10
6.09916e-10
5.96409e-10
5.82909e-10
5.69416e-10
5.55934e-10
5.42457e-10
5.28987e-10
5.15525e-10
5.02068e-10
4.88618e-10
4.75174e-10
4.61734e-10
4.483e-10
4.34872e-10
4.21447e-10
4.08026e-10
3.94612e-10
3.81199e-10
3.6779e-10
3.54387e-10
3.40985e-10
3.27587e-10
3.14193e-10
3.008e-10
2.8741e-10
2.74025e-10
2.6064e-10
2.47258e-10
2.33879e-10
2.20501e-10
2.07125e-10
1.93753e-10
1.80381e-10
1.6701e-10
1.53643e-10
1.40276e-10
1.2691e-10
1.13547e-10
1.00184e-10
8.68219e-11
7.3463e-11
6.01033e-11
4.67444e-11
3.33889e-11
2.00306e-11
6.67982e-12
1.85481e-09
1.83362e-09
1.79271e-09
1.75455e-09
1.72321e-09
1.69356e-09
1.66504e-09
1.63877e-09
1.61457e-09
1.59182e-09
1.57017e-09
1.54946e-09
1.52951e-09
1.51018e-09
1.49136e-09
1.47298e-09
1.45499e-09
1.43733e-09
1.41997e-09
1.40289e-09
1.38604e-09
1.36943e-09
1.35301e-09
1.33679e-09
1.32074e-09
1.30485e-09
1.28911e-09
1.27351e-09
1.25804e-09
1.24269e-09
1.22746e-09
1.21233e-09
1.19729e-09
1.18236e-09
1.16751e-09
1.15274e-09
1.13805e-09
1.12343e-09
1.10888e-09
1.0944e-09
1.07997e-09
1.06561e-09
1.0513e-09
1.03703e-09
1.02282e-09
1.00866e-09
9.94533e-10
9.8045e-10
9.66408e-10
9.52401e-10
9.38428e-10
9.2449e-10
9.10581e-10
8.96702e-10
8.82852e-10
8.69027e-10
8.55227e-10
8.41453e-10
8.27699e-10
8.13966e-10
8.00256e-10
7.86562e-10
7.72887e-10
7.59231e-10
7.4559e-10
7.31964e-10
7.18354e-10
7.04757e-10
6.91172e-10
6.77603e-10
6.64043e-10
6.50494e-10
6.36958e-10
6.2343e-10
6.09912e-10
5.96405e-10
5.82905e-10
5.69413e-10
5.55931e-10
5.42454e-10
5.28984e-10
5.15523e-10
5.02066e-10
4.88615e-10
4.75172e-10
4.61732e-10
4.48298e-10
4.3487e-10
4.21445e-10
4.08025e-10
3.9461e-10
3.81198e-10
3.67789e-10
3.54386e-10
3.40984e-10
3.27585e-10
3.14192e-10
3.00799e-10
2.87409e-10
2.74024e-10
2.60639e-10
2.47257e-10
2.33879e-10
2.20501e-10
2.07125e-10
1.93752e-10
1.8038e-10
1.67009e-10
1.53642e-10
1.40275e-10
1.26909e-10
1.13547e-10
1.00183e-10
8.68214e-11
7.34626e-11
6.0103e-11
4.67443e-11
3.33888e-11
2.00315e-11
6.67755e-12
1.88137e-09
1.84547e-09
1.79006e-09
1.74958e-09
1.71868e-09
1.68872e-09
1.66049e-09
1.63503e-09
1.61159e-09
1.58946e-09
1.56833e-09
1.54804e-09
1.5284e-09
1.5093e-09
1.49066e-09
1.47241e-09
1.45452e-09
1.43694e-09
1.41965e-09
1.40261e-09
1.3858e-09
1.36922e-09
1.35283e-09
1.33663e-09
1.3206e-09
1.30473e-09
1.289e-09
1.27341e-09
1.25795e-09
1.24261e-09
1.22739e-09
1.21226e-09
1.19724e-09
1.18231e-09
1.16746e-09
1.1527e-09
1.13801e-09
1.1234e-09
1.10885e-09
1.09437e-09
1.07995e-09
1.06558e-09
1.05127e-09
1.03701e-09
1.0228e-09
1.00864e-09
9.94516e-10
9.80435e-10
9.66394e-10
9.52387e-10
9.38415e-10
9.24478e-10
9.1057e-10
8.96692e-10
8.82843e-10
8.69018e-10
8.55219e-10
8.41445e-10
8.27691e-10
8.13959e-10
8.00249e-10
7.86556e-10
7.72882e-10
7.59226e-10
7.45585e-10
7.31959e-10
7.1835e-10
7.04753e-10
6.91168e-10
6.77599e-10
6.64039e-10
6.50491e-10
6.36955e-10
6.23428e-10
6.0991e-10
5.96403e-10
5.82903e-10
5.69411e-10
5.55928e-10
5.42452e-10
5.28982e-10
5.15521e-10
5.02064e-10
4.88613e-10
4.7517e-10
4.61731e-10
4.48296e-10
4.34869e-10
4.21444e-10
4.08023e-10
3.94609e-10
3.81196e-10
3.67788e-10
3.54385e-10
3.40983e-10
3.27584e-10
3.14191e-10
3.00798e-10
2.87409e-10
2.74023e-10
2.60639e-10
2.47256e-10
2.33878e-10
2.205e-10
2.07124e-10
1.93752e-10
1.8038e-10
1.67009e-10
1.53642e-10
1.40275e-10
1.26909e-10
1.13546e-10
1.00183e-10
8.68211e-11
7.34623e-11
6.01027e-11
4.67442e-11
3.33887e-11
2.00321e-11
6.67582e-12
1.85317e-09
1.8336e-09
1.79366e-09
1.7551e-09
1.72339e-09
1.69374e-09
1.66521e-09
1.63885e-09
1.6146e-09
1.59184e-09
1.57019e-09
1.54947e-09
1.52952e-09
1.51019e-09
1.49137e-09
1.47299e-09
1.455e-09
1.43734e-09
1.41999e-09
1.4029e-09
1.38606e-09
1.36944e-09
1.35303e-09
1.3368e-09
1.32075e-09
1.30486e-09
1.28912e-09
1.27352e-09
1.25805e-09
1.2427e-09
1.22747e-09
1.21233e-09
1.1973e-09
1.18237e-09
1.16751e-09
1.15275e-09
1.13806e-09
1.12344e-09
1.10889e-09
1.0944e-09
1.07998e-09
1.06561e-09
1.0513e-09
1.03704e-09
1.02283e-09
1.00866e-09
9.94537e-10
9.80454e-10
9.66412e-10
9.52404e-10
9.38431e-10
9.24493e-10
9.10584e-10
8.96704e-10
8.82855e-10
8.69029e-10
8.55229e-10
8.41455e-10
8.27701e-10
8.13968e-10
8.00258e-10
7.86564e-10
7.72889e-10
7.59233e-10
7.45591e-10
7.31965e-10
7.18356e-10
7.04758e-10
6.91174e-10
6.77604e-10
6.64044e-10
6.50495e-10
6.36959e-10
6.23431e-10
6.09913e-10
5.96406e-10
5.82906e-10
5.69414e-10
5.55931e-10
5.42454e-10
5.28985e-10
5.15523e-10
5.02067e-10
4.88616e-10
4.75173e-10
4.61733e-10
4.48298e-10
4.34871e-10
4.21446e-10
4.08025e-10
3.9461e-10
3.81198e-10
3.67789e-10
3.54386e-10
3.40984e-10
3.27586e-10
3.14192e-10
3.00799e-10
2.8741e-10
2.74024e-10
2.60639e-10
2.47257e-10
2.33879e-10
2.20501e-10
2.07125e-10
1.93753e-10
1.8038e-10
1.6701e-10
1.53643e-10
1.40275e-10
1.26909e-10
1.13547e-10
1.00183e-10
8.68215e-11
7.34627e-11
6.0103e-11
4.67443e-11
3.33888e-11
2.00314e-11
6.67793e-12
1.85481e-09
1.83362e-09
1.79271e-09
1.75455e-09
1.72321e-09
1.69356e-09
1.66504e-09
1.63877e-09
1.61457e-09
1.59182e-09
1.57017e-09
1.54946e-09
1.52951e-09
1.51018e-09
1.49136e-09
1.47298e-09
1.45499e-09
1.43733e-09
1.41997e-09
1.40289e-09
1.38604e-09
1.36943e-09
1.35301e-09
1.33679e-09
1.32074e-09
1.30485e-09
1.28911e-09
1.27351e-09
1.25804e-09
1.24269e-09
1.22746e-09
1.21233e-09
1.19729e-09
1.18236e-09
1.16751e-09
1.15274e-09
1.13805e-09
1.12343e-09
1.10888e-09
1.0944e-09
1.07997e-09
1.06561e-09
1.0513e-09
1.03703e-09
1.02282e-09
1.00866e-09
9.94533e-10
9.8045e-10
9.66408e-10
9.52401e-10
9.38428e-10
9.2449e-10
9.10581e-10
8.96702e-10
8.82852e-10
8.69027e-10
8.55227e-10
8.41453e-10
8.27699e-10
8.13966e-10
8.00256e-10
7.86562e-10
7.72887e-10
7.59231e-10
7.4559e-10
7.31964e-10
7.18354e-10
7.04757e-10
6.91172e-10
6.77603e-10
6.64043e-10
6.50494e-10
6.36958e-10
6.2343e-10
6.09912e-10
5.96405e-10
5.82905e-10
5.69413e-10
5.55931e-10
5.42454e-10
5.28984e-10
5.15523e-10
5.02066e-10
4.88615e-10
4.75172e-10
4.61732e-10
4.48298e-10
4.3487e-10
4.21445e-10
4.08025e-10
3.9461e-10
3.81198e-10
3.67789e-10
3.54386e-10
3.40984e-10
3.27585e-10
3.14192e-10
3.00799e-10
2.87409e-10
2.74024e-10
2.60639e-10
2.47257e-10
2.33879e-10
2.20501e-10
2.07125e-10
1.93752e-10
1.8038e-10
1.67009e-10
1.53642e-10
1.40275e-10
1.26909e-10
1.13547e-10
1.00183e-10
8.68214e-11
7.34626e-11
6.0103e-11
4.67443e-11
3.33888e-11
2.00315e-11
6.67755e-12
1.86554e-09
1.83948e-09
1.79243e-09
1.75289e-09
1.72155e-09
1.69156e-09
1.66301e-09
1.63706e-09
1.61319e-09
1.59071e-09
1.56929e-09
1.54876e-09
1.52896e-09
1.50973e-09
1.49099e-09
1.47268e-09
1.45473e-09
1.43711e-09
1.41979e-09
1.40272e-09
1.3859e-09
1.3693e-09
1.3529e-09
1.33669e-09
1.32065e-09
1.30477e-09
1.28904e-09
1.27345e-09
1.25798e-09
1.24264e-09
1.22741e-09
1.21228e-09
1.19726e-09
1.18232e-09
1.16748e-09
1.15271e-09
1.13802e-09
1.12341e-09
1.10886e-09
1.09438e-09
1.07995e-09
1.06559e-09
1.05128e-09
1.03702e-09
1.02281e-09
1.00864e-09
9.94521e-10
9.80439e-10
9.66397e-10
9.52391e-10
9.38419e-10
9.24481e-10
9.10573e-10
8.96694e-10
8.82845e-10
8.6902e-10
8.55221e-10
8.41447e-10
8.27693e-10
8.13961e-10
8.00251e-10
7.86558e-10
7.72883e-10
7.59227e-10
7.45586e-10
7.3196e-10
7.18351e-10
7.04753e-10
6.91169e-10
6.776e-10
6.6404e-10
6.50492e-10
6.36956e-10
6.23428e-10
6.0991e-10
5.96403e-10
5.82903e-10
5.69411e-10
5.55929e-10
5.42452e-10
5.28982e-10
5.15521e-10
5.02065e-10
4.88614e-10
4.75171e-10
4.61731e-10
4.48297e-10
4.34869e-10
4.21444e-10
4.08024e-10
3.94609e-10
3.81197e-10
3.67788e-10
3.54385e-10
3.40983e-10
3.27585e-10
3.14191e-10
3.00799e-10
2.87409e-10
2.74023e-10
2.60639e-10
2.47256e-10
2.33878e-10
2.205e-10
2.07124e-10
1.93752e-10
1.8038e-10
1.67009e-10
1.53642e-10
1.40275e-10
1.26909e-10
1.13546e-10
1.00183e-10
8.68212e-11
7.34624e-11
6.01028e-11
4.67441e-11
3.33886e-11
2.00318e-11
6.67654e-12
1.88662e-09
1.84794e-09
1.78929e-09
1.74862e-09
1.71783e-09
1.68772e-09
1.65959e-09
1.63435e-09
1.61107e-09
1.58905e-09
1.56802e-09
1.54779e-09
1.5282e-09
1.50914e-09
1.49052e-09
1.4723e-09
1.45442e-09
1.43685e-09
1.41957e-09
1.40254e-09
1.38574e-09
1.36916e-09
1.35278e-09
1.33659e-09
1.32056e-09
1.30469e-09
1.28897e-09
1.27338e-09
1.25793e-09
1.24259e-09
1.22736e-09
1.21224e-09
1.19722e-09
1.18229e-09
1.16744e-09
1.15268e-09
1.13799e-09
1.12338e-09
1.10883e-09
1.09436e-09
1.07993e-09
1.06557e-09
1.05126e-09
1.037e-09
1.02279e-09
1.00863e-09
9.94508e-10
9.80427e-10
9.66387e-10
9.52381e-10
9.38409e-10
9.24472e-10
9.10565e-10
8.96686e-10
8.82838e-10
8.69014e-10
8.55214e-10
8.41441e-10
8.27687e-10
8.13956e-10
8.00246e-10
7.86553e-10
7.72878e-10
7.59223e-10
7.45582e-10
7.31956e-10
7.18347e-10
7.0475e-10
6.91166e-10
6.77597e-10
6.64037e-10
6.50489e-10
6.36953e-10
6.23426e-10
6.09908e-10
5.96401e-10
5.82901e-10
5.69409e-10
5.55927e-10
5.4245e-10
5.28981e-10
5.1552e-10
5.02063e-10
4.88613e-10
4.7517e-10
4.6173e-10
4.48296e-10
4.34868e-10
4.21443e-10
4.08023e-10
3.94608e-10
3.81196e-10
3.67787e-10
3.54384e-10
3.40982e-10
3.27584e-10
3.1419e-10
3.00798e-10
2.87408e-10
2.74023e-10
2.60638e-10
2.47256e-10
2.33878e-10
2.205e-10
2.07124e-10
1.93752e-10
1.80379e-10
1.67009e-10
1.53642e-10
1.40274e-10
1.26908e-10
1.13546e-10
1.00183e-10
8.68209e-11
7.34622e-11
6.01026e-11
4.6744e-11
3.33885e-11
2.00321e-11
6.67554e-12
1.88617e-09
1.84883e-09
1.79103e-09
1.74917e-09
1.71782e-09
1.68777e-09
1.65958e-09
1.63426e-09
1.611e-09
1.58902e-09
1.568e-09
1.54779e-09
1.52822e-09
1.50916e-09
1.49055e-09
1.47233e-09
1.45446e-09
1.43689e-09
1.4196e-09
1.40257e-09
1.38578e-09
1.3692e-09
1.35282e-09
1.33662e-09
1.32059e-09
1.30472e-09
1.28899e-09
1.27341e-09
1.25795e-09
1.24261e-09
1.22738e-09
1.21226e-09
1.19724e-09
1.1823e-09
1.16746e-09
1.15269e-09
1.13801e-09
1.12339e-09
1.10885e-09
1.09437e-09
1.07995e-09
1.06558e-09
1.05127e-09
1.03701e-09
1.0228e-09
1.00864e-09
9.94517e-10
9.80435e-10
9.66394e-10
9.52388e-10
9.38416e-10
9.24479e-10
9.10571e-10
8.96692e-10
8.82843e-10
8.69019e-10
8.55219e-10
8.41445e-10
8.27692e-10
8.1396e-10
8.0025e-10
7.86557e-10
7.72882e-10
7.59226e-10
7.45585e-10
7.31959e-10
7.1835e-10
7.04753e-10
6.91169e-10
6.77599e-10
6.6404e-10
6.50491e-10
6.36955e-10
6.23428e-10
6.0991e-10
5.96403e-10
5.82903e-10
5.69411e-10
5.55929e-10
5.42452e-10
5.28982e-10
5.15521e-10
5.02064e-10
4.88614e-10
4.75171e-10
4.61731e-10
4.48297e-10
4.34869e-10
4.21444e-10
4.08023e-10
3.94609e-10
3.81197e-10
3.67788e-10
3.54385e-10
3.40983e-10
3.27584e-10
3.14191e-10
3.00798e-10
2.87409e-10
2.74023e-10
2.60639e-10
2.47256e-10
2.33878e-10
2.205e-10
2.07124e-10
1.93752e-10
1.8038e-10
1.67009e-10
1.53642e-10
1.40275e-10
1.26909e-10
1.13546e-10
1.00183e-10
8.68211e-11
7.34624e-11
6.01028e-11
4.67442e-11
3.33887e-11
2.00322e-11
6.67575e-12
1.88137e-09
1.84547e-09
1.79006e-09
1.74958e-09
1.71868e-09
1.68872e-09
1.66049e-09
1.63503e-09
1.61159e-09
1.58946e-09
1.56833e-09
1.54804e-09
1.5284e-09
1.5093e-09
1.49066e-09
1.47241e-09
1.45452e-09
1.43694e-09
1.41965e-09
1.40261e-09
1.3858e-09
1.36922e-09
1.35283e-09
1.33663e-09
1.3206e-09
1.30473e-09
1.289e-09
1.27341e-09
1.25795e-09
1.24261e-09
1.22739e-09
1.21226e-09
1.19724e-09
1.18231e-09
1.16746e-09
1.1527e-09
1.13801e-09
1.1234e-09
1.10885e-09
1.09437e-09
1.07995e-09
1.06558e-09
1.05127e-09
1.03701e-09
1.0228e-09
1.00864e-09
9.94516e-10
9.80435e-10
9.66394e-10
9.52387e-10
9.38415e-10
9.24478e-10
9.1057e-10
8.96692e-10
8.82843e-10
8.69018e-10
8.55219e-10
8.41445e-10
8.27691e-10
8.13959e-10
8.00249e-10
7.86556e-10
7.72882e-10
7.59226e-10
7.45585e-10
7.31959e-10
7.1835e-10
7.04753e-10
6.91168e-10
6.77599e-10
6.64039e-10
6.50491e-10
6.36955e-10
6.23428e-10
6.0991e-10
5.96403e-10
5.82903e-10
5.69411e-10
5.55928e-10
5.42452e-10
5.28982e-10
5.15521e-10
5.02064e-10
4.88613e-10
4.7517e-10
4.61731e-10
4.48296e-10
4.34869e-10
4.21444e-10
4.08023e-10
3.94609e-10
3.81196e-10
3.67788e-10
3.54385e-10
3.40983e-10
3.27584e-10
3.14191e-10
3.00798e-10
2.87409e-10
2.74023e-10
2.60639e-10
2.47256e-10
2.33878e-10
2.205e-10
2.07124e-10
1.93752e-10
1.8038e-10
1.67009e-10
1.53642e-10
1.40275e-10
1.26909e-10
1.13546e-10
1.00183e-10
8.68211e-11
7.34623e-11
6.01027e-11
4.67442e-11
3.33887e-11
2.00321e-11
6.67582e-12
1.88662e-09
1.84794e-09
1.78929e-09
1.74862e-09
1.71783e-09
1.68772e-09
1.65959e-09
1.63435e-09
1.61107e-09
1.58905e-09
1.56802e-09
1.54779e-09
1.5282e-09
1.50914e-09
1.49052e-09
1.4723e-09
1.45442e-09
1.43685e-09
1.41957e-09
1.40254e-09
1.38574e-09
1.36916e-09
1.35278e-09
1.33659e-09
1.32056e-09
1.30469e-09
1.28897e-09
1.27338e-09
1.25793e-09
1.24259e-09
1.22736e-09
1.21224e-09
1.19722e-09
1.18229e-09
1.16744e-09
1.15268e-09
1.13799e-09
1.12338e-09
1.10883e-09
1.09436e-09
1.07993e-09
1.06557e-09
1.05126e-09
1.037e-09
1.02279e-09
1.00863e-09
9.94508e-10
9.80427e-10
9.66387e-10
9.52381e-10
9.38409e-10
9.24472e-10
9.10565e-10
8.96686e-10
8.82838e-10
8.69014e-10
8.55214e-10
8.41441e-10
8.27687e-10
8.13956e-10
8.00246e-10
7.86553e-10
7.72878e-10
7.59223e-10
7.45582e-10
7.31956e-10
7.18347e-10
7.0475e-10
6.91166e-10
6.77597e-10
6.64037e-10
6.50489e-10
6.36953e-10
6.23426e-10
6.09908e-10
5.96401e-10
5.82901e-10
5.69409e-10
5.55927e-10
5.4245e-10
5.28981e-10
5.1552e-10
5.02063e-10
4.88612e-10
4.7517e-10
4.6173e-10
4.48296e-10
4.34868e-10
4.21443e-10
4.08023e-10
3.94608e-10
3.81196e-10
3.67787e-10
3.54384e-10
3.40982e-10
3.27584e-10
3.1419e-10
3.00798e-10
2.87408e-10
2.74023e-10
2.60638e-10
2.47256e-10
2.33878e-10
2.205e-10
2.07124e-10
1.93752e-10
1.80379e-10
1.67009e-10
1.53642e-10
1.40274e-10
1.26908e-10
1.13546e-10
1.00183e-10
8.68209e-11
7.34622e-11
6.01025e-11
4.6744e-11
3.33885e-11
2.00321e-11
6.67555e-12
1.9016e-09
1.85293e-09
1.78618e-09
1.74522e-09
1.71469e-09
1.68458e-09
1.65693e-09
1.63227e-09
1.60944e-09
1.58777e-09
1.56701e-09
1.547e-09
1.52756e-09
1.50861e-09
1.49008e-09
1.47192e-09
1.4541e-09
1.43657e-09
1.41932e-09
1.40232e-09
1.38555e-09
1.36899e-09
1.35262e-09
1.33644e-09
1.32043e-09
1.30457e-09
1.28886e-09
1.27328e-09
1.25783e-09
1.2425e-09
1.22728e-09
1.21217e-09
1.19715e-09
1.18222e-09
1.16738e-09
1.15262e-09
1.13794e-09
1.12333e-09
1.10879e-09
1.09431e-09
1.07989e-09
1.06553e-09
1.05123e-09
1.03697e-09
1.02276e-09
1.0086e-09
9.9448e-10
9.80401e-10
9.66362e-10
9.52357e-10
9.38387e-10
9.24452e-10
9.10545e-10
8.96668e-10
8.8282e-10
8.68997e-10
8.55199e-10
8.41426e-10
8.27673e-10
8.13942e-10
8.00233e-10
7.86541e-10
7.72867e-10
7.59212e-10
7.45572e-10
7.31947e-10
7.18338e-10
7.04742e-10
6.91158e-10
6.77589e-10
6.6403e-10
6.50482e-10
6.36947e-10
6.2342e-10
6.09902e-10
5.96396e-10
5.82896e-10
5.69404e-10
5.55922e-10
5.42446e-10
5.28977e-10
5.15516e-10
5.02059e-10
4.88609e-10
4.75166e-10
4.61727e-10
4.48292e-10
4.34865e-10
4.2144e-10
4.0802e-10
3.94606e-10
3.81193e-10
3.67785e-10
3.54382e-10
3.4098e-10
3.27582e-10
3.14189e-10
3.00796e-10
2.87406e-10
2.74021e-10
2.60637e-10
2.47254e-10
2.33876e-10
2.20498e-10
2.07122e-10
1.9375e-10
1.80378e-10
1.67008e-10
1.53641e-10
1.40273e-10
1.26908e-10
1.13545e-10
1.00182e-10
8.68201e-11
7.34614e-11
6.01019e-11
4.67434e-11
3.33879e-11
2.00317e-11
6.67485e-12
1.94497e-09
1.85644e-09
1.779e-09
1.74076e-09
1.71044e-09
1.68073e-09
1.65423e-09
1.63048e-09
1.60823e-09
1.58694e-09
1.56646e-09
1.54662e-09
1.52731e-09
1.50844e-09
1.48997e-09
1.47185e-09
1.45406e-09
1.43655e-09
1.41931e-09
1.40232e-09
1.38556e-09
1.36901e-09
1.35265e-09
1.33647e-09
1.32045e-09
1.3046e-09
1.28889e-09
1.27331e-09
1.25786e-09
1.24253e-09
1.22731e-09
1.21219e-09
1.19717e-09
1.18225e-09
1.16741e-09
1.15265e-09
1.13796e-09
1.12335e-09
1.10881e-09
1.09433e-09
1.07991e-09
1.06555e-09
1.05124e-09
1.03699e-09
1.02278e-09
1.00861e-09
9.94494e-10
9.80414e-10
9.66374e-10
9.52369e-10
9.38398e-10
9.24462e-10
9.10555e-10
8.96677e-10
8.82829e-10
8.69006e-10
8.55207e-10
8.41434e-10
8.27681e-10
8.13949e-10
8.0024e-10
7.86548e-10
7.72873e-10
7.59218e-10
7.45577e-10
7.31952e-10
7.18343e-10
7.04746e-10
6.91163e-10
6.77593e-10
6.64034e-10
6.50486e-10
6.3695e-10
6.23423e-10
6.09905e-10
5.96399e-10
5.82899e-10
5.69407e-10
5.55925e-10
5.42448e-10
5.28979e-10
5.15518e-10
5.02061e-10
4.88611e-10
4.75168e-10
4.61729e-10
4.48294e-10
4.34867e-10
4.21442e-10
4.08021e-10
3.94607e-10
3.81195e-10
3.67786e-10
3.54383e-10
3.40981e-10
3.27583e-10
3.1419e-10
3.00797e-10
2.87407e-10
2.74022e-10
2.60638e-10
2.47255e-10
2.33877e-10
2.20499e-10
2.07123e-10
1.93751e-10
1.80379e-10
1.67008e-10
1.53641e-10
1.40274e-10
1.26908e-10
1.13546e-10
1.00182e-10
8.68206e-11
7.34619e-11
6.01023e-11
4.67438e-11
3.33883e-11
2.00321e-11
6.67506e-12
1.931e-09
1.85392e-09
1.77986e-09
1.74138e-09
1.71139e-09
1.68179e-09
1.65517e-09
1.63128e-09
1.60888e-09
1.58746e-09
1.56686e-09
1.54694e-09
1.52756e-09
1.50865e-09
1.49014e-09
1.47199e-09
1.45417e-09
1.43665e-09
1.4194e-09
1.40239e-09
1.38562e-09
1.36906e-09
1.35269e-09
1.33651e-09
1.32049e-09
1.30463e-09
1.28891e-09
1.27334e-09
1.25788e-09
1.24255e-09
1.22733e-09
1.21221e-09
1.19719e-09
1.18226e-09
1.16742e-09
1.15266e-09
1.13798e-09
1.12336e-09
1.10882e-09
1.09434e-09
1.07992e-09
1.06556e-09
1.05125e-09
1.03699e-09
1.02278e-09
1.00862e-09
9.945e-10
9.8042e-10
9.6638e-10
9.52374e-10
9.38403e-10
9.24467e-10
9.10559e-10
8.96681e-10
8.82833e-10
8.69009e-10
8.5521e-10
8.41437e-10
8.27684e-10
8.13952e-10
8.00243e-10
7.8655e-10
7.72876e-10
7.59221e-10
7.4558e-10
7.31954e-10
7.18345e-10
7.04748e-10
6.91164e-10
6.77595e-10
6.64036e-10
6.50487e-10
6.36952e-10
6.23424e-10
6.09907e-10
5.964e-10
5.829e-10
5.69408e-10
5.55926e-10
5.42449e-10
5.2898e-10
5.15519e-10
5.02062e-10
4.88612e-10
4.75169e-10
4.61729e-10
4.48295e-10
4.34867e-10
4.21442e-10
4.08022e-10
3.94608e-10
3.81195e-10
3.67787e-10
3.54384e-10
3.40982e-10
3.27583e-10
3.1419e-10
3.00797e-10
2.87408e-10
2.74023e-10
2.60638e-10
2.47255e-10
2.33877e-10
2.20499e-10
2.07123e-10
1.93751e-10
1.80379e-10
1.67008e-10
1.53642e-10
1.40274e-10
1.26908e-10
1.13546e-10
1.00183e-10
8.68207e-11
7.3462e-11
6.01024e-11
4.67439e-11
3.33884e-11
2.00322e-11
6.67514e-12
1.93046e-09
1.85355e-09
1.77921e-09
1.74101e-09
1.71134e-09
1.68189e-09
1.65536e-09
1.63153e-09
1.60914e-09
1.5877e-09
1.56708e-09
1.54713e-09
1.52772e-09
1.50878e-09
1.49025e-09
1.47209e-09
1.45426e-09
1.43672e-09
1.41946e-09
1.40245e-09
1.38567e-09
1.36911e-09
1.35274e-09
1.33655e-09
1.32053e-09
1.30466e-09
1.28894e-09
1.27336e-09
1.25791e-09
1.24257e-09
1.22735e-09
1.21223e-09
1.19721e-09
1.18228e-09
1.16744e-09
1.15267e-09
1.13799e-09
1.12338e-09
1.10883e-09
1.09435e-09
1.07993e-09
1.06557e-09
1.05126e-09
1.037e-09
1.02279e-09
1.00863e-09
9.94508e-10
9.80427e-10
9.66387e-10
9.52381e-10
9.3841e-10
9.24473e-10
9.10565e-10
8.96687e-10
8.82839e-10
8.69014e-10
8.55215e-10
8.41442e-10
8.27688e-10
8.13956e-10
8.00247e-10
7.86554e-10
7.72879e-10
7.59224e-10
7.45583e-10
7.31957e-10
7.18348e-10
7.04751e-10
6.91167e-10
6.77597e-10
6.64038e-10
6.5049e-10
6.36954e-10
6.23426e-10
6.09908e-10
5.96402e-10
5.82902e-10
5.6941e-10
5.55928e-10
5.42451e-10
5.28981e-10
5.1552e-10
5.02064e-10
4.88613e-10
4.7517e-10
4.6173e-10
4.48296e-10
4.34868e-10
4.21443e-10
4.08023e-10
3.94608e-10
3.81196e-10
3.67787e-10
3.54384e-10
3.40983e-10
3.27584e-10
3.14191e-10
3.00798e-10
2.87408e-10
2.74023e-10
2.60638e-10
2.47256e-10
2.33878e-10
2.205e-10
2.07124e-10
1.93752e-10
1.80379e-10
1.67009e-10
1.53642e-10
1.40274e-10
1.26909e-10
1.13546e-10
1.00183e-10
8.6821e-11
7.34622e-11
6.01027e-11
4.67442e-11
3.33886e-11
2.00324e-11
6.67522e-12
1.94387e-09
1.85529e-09
1.77711e-09
1.7397e-09
1.71018e-09
1.68081e-09
1.65455e-09
1.63093e-09
1.60868e-09
1.58736e-09
1.56683e-09
1.54694e-09
1.52757e-09
1.50866e-09
1.49016e-09
1.47201e-09
1.45419e-09
1.43666e-09
1.41941e-09
1.40241e-09
1.38563e-09
1.36907e-09
1.3527e-09
1.33652e-09
1.3205e-09
1.30464e-09
1.28892e-09
1.27334e-09
1.25789e-09
1.24256e-09
1.22734e-09
1.21222e-09
1.1972e-09
1.18227e-09
1.16743e-09
1.15266e-09
1.13798e-09
1.12337e-09
1.10882e-09
1.09435e-09
1.07993e-09
1.06556e-09
1.05126e-09
1.037e-09
1.02279e-09
1.00863e-09
9.94504e-10
9.80423e-10
9.66383e-10
9.52377e-10
9.38406e-10
9.2447e-10
9.10562e-10
8.96684e-10
8.82836e-10
8.69012e-10
8.55213e-10
8.41439e-10
8.27686e-10
8.13954e-10
8.00245e-10
7.86552e-10
7.72877e-10
7.59222e-10
7.45581e-10
7.31955e-10
7.18347e-10
7.04749e-10
6.91166e-10
6.77596e-10
6.64037e-10
6.50488e-10
6.36953e-10
6.23425e-10
6.09908e-10
5.96401e-10
5.82901e-10
5.69409e-10
5.55927e-10
5.4245e-10
5.28981e-10
5.1552e-10
5.02063e-10
4.88612e-10
4.75169e-10
4.6173e-10
4.48295e-10
4.34868e-10
4.21443e-10
4.08022e-10
3.94608e-10
3.81196e-10
3.67787e-10
3.54384e-10
3.40982e-10
3.27584e-10
3.1419e-10
3.00798e-10
2.87408e-10
2.74023e-10
2.60638e-10
2.47256e-10
2.33878e-10
2.205e-10
2.07124e-10
1.93751e-10
1.80379e-10
1.67009e-10
1.53642e-10
1.40274e-10
1.26908e-10
1.13546e-10
1.00183e-10
8.68209e-11
7.34621e-11
6.01025e-11
4.67441e-11
3.33886e-11
2.00324e-11
6.67514e-12
2.03266e-09
1.84608e-09
1.76391e-09
1.73511e-09
1.70523e-09
1.67626e-09
1.65119e-09
1.62841e-09
1.60676e-09
1.58591e-09
1.56572e-09
1.54607e-09
1.52687e-09
1.50809e-09
1.48967e-09
1.4716e-09
1.45383e-09
1.43636e-09
1.41914e-09
1.40217e-09
1.38542e-09
1.36888e-09
1.35253e-09
1.33636e-09
1.32036e-09
1.30451e-09
1.2888e-09
1.27323e-09
1.25779e-09
1.24246e-09
1.22725e-09
1.21213e-09
1.19712e-09
1.1822e-09
1.16736e-09
1.1526e-09
1.13792e-09
1.12331e-09
1.10877e-09
1.0943e-09
1.07988e-09
1.06552e-09
1.05121e-09
1.03696e-09
1.02275e-09
1.00859e-09
9.94471e-10
9.80392e-10
9.66354e-10
9.5235e-10
9.3838e-10
9.24445e-10
9.10539e-10
8.96662e-10
8.82815e-10
8.68992e-10
8.55194e-10
8.41421e-10
8.27669e-10
8.13938e-10
8.0023e-10
7.86538e-10
7.72864e-10
7.59209e-10
7.45569e-10
7.31944e-10
7.18336e-10