/*--------------------------------*- C++ -*----------------------------------*\
  =========                 |
  \\      /  F ield         | OpenFOAM: The Open Source CFD Toolbox
   \\    /   O peration     | Website:  https://openfoam.org
    \\  /    A nd           | Version:  12
     \\/     M anipulation  |
\*---------------------------------------------------------------------------*/
FoamFile
{
    format      ascii;
    class       surfaceScalarField;
    location    "299";
    object      phi;
}
// * * * * * * * * * * * * * * * * * * * * * * * * * * * * * * * * * * * * * //

dimensions      [0 3 -1 0 0 0 0];

internalField   nonuniform List<scalar> 
67008
(
2.62426e-06
-2.04358e-08
-2.04358e-08
-1.71597e-14
9.90229e-15
2.73598e-06
-5.58618e-08
-5.58618e-08
-2.40519e-14
1.10276e-13
2.87683e-06
-7.04258e-08
-7.04258e-08
-8.43682e-14
4.29189e-14
3.01963e-06
-7.13971e-08
-7.13972e-08
-8.88877e-14
-2.03708e-13
3.15757e-06
-6.89715e-08
-6.89717e-08
2.12559e-14
-1.16405e-13
3.28764e-06
-6.5036e-08
-6.5036e-08
7.42909e-14
1.84645e-13
3.40721e-06
-5.97842e-08
-5.9784e-08
-1.04953e-13
-1.0841e-14
3.51605e-06
-5.44209e-08
-5.44209e-08
-2.41538e-13
-3.95368e-13
3.61531e-06
-4.96296e-08
-4.96296e-08
-7.60355e-14
-1.85452e-13
3.70615e-06
-4.54175e-08
-4.54174e-08
1.36762e-13
3.38648e-13
3.78955e-06
-4.17031e-08
-4.17031e-08
4.52241e-14
2.24314e-13
3.86644e-06
-3.84478e-08
-3.8448e-08
-2.13007e-13
-4.53904e-13
3.93763e-06
-3.55926e-08
-3.55927e-08
-2.04814e-13
-6.25108e-13
4.00375e-06
-3.30587e-08
-3.30585e-08
9.50994e-14
-4.13103e-14
4.06533e-06
-3.07827e-08
-3.07823e-08
2.84064e-13
4.86122e-13
4.12278e-06
-2.87244e-08
-2.87243e-08
1.94657e-13
6.31943e-13
4.17646e-06
-2.68488e-08
-2.68491e-08
-8.77212e-14
2.58783e-13
4.2267e-06
-2.51247e-08
-2.51252e-08
-3.35319e-13
-4.32998e-13
4.27377e-06
-2.35334e-08
-2.35337e-08
-2.90156e-13
-6.51436e-13
4.3179e-06
-2.20609e-08
-2.20607e-08
-1.51528e-14
-3.05387e-13
4.3593e-06
-2.06949e-08
-2.06944e-08
2.22684e-13
1.28426e-13
4.39816e-06
-1.94277e-08
-1.94272e-08
3.16646e-13
5.00056e-13
4.43466e-06
-1.82499e-08
-1.82497e-08
2.23411e-13
5.49056e-13
4.46895e-06
-1.71514e-08
-1.71515e-08
1.47153e-14
2.68907e-13
4.5012e-06
-1.61263e-08
-1.61267e-08
-1.41554e-13
-2.31475e-14
4.53153e-06
-1.51689e-08
-1.51693e-08
-1.99986e-13
-2.54183e-13
4.56008e-06
-1.42731e-08
-1.42733e-08
-1.56437e-13
-3.12328e-13
4.58695e-06
-1.3436e-08
-1.3436e-08
-4.94112e-14
-1.87462e-13
4.61227e-06
-1.26538e-08
-1.26537e-08
3.56149e-14
-3.68152e-14
4.63611e-06
-1.19215e-08
-1.19213e-08
8.60666e-14
1.23402e-13
4.65859e-06
-1.12354e-08
-1.12352e-08
8.37663e-14
2.00453e-13
4.67978e-06
-1.05967e-08
-1.05966e-08
4.08421e-14
1.80943e-13
4.69976e-06
-9.99157e-09
-9.99157e-09
-9.29002e-15
1.16164e-13
4.71861e-06
-9.42656e-09
-9.42667e-09
-5.81927e-14
4.3922e-15
4.7364e-06
-8.89846e-09
-8.89861e-09
-8.01998e-14
-7.84212e-14
4.7532e-06
-8.39712e-09
-8.39726e-09
-7.62498e-14
-1.26811e-13
4.76905e-06
-7.92854e-09
-7.92863e-09
-5.47619e-14
-1.32578e-13
4.78404e-06
-7.4903e-09
-7.49032e-09
-2.20719e-14
-9.58836e-14
4.79819e-06
-7.07397e-09
-7.07393e-09
4.00122e-15
-4.99917e-14
4.81156e-06
-6.68457e-09
-6.68449e-09
2.36112e-14
-7.37457e-16
4.8242e-06
-6.32004e-09
-6.31994e-09
3.22866e-14
3.4794e-14
4.83614e-06
-5.97319e-09
-5.9731e-09
3.03331e-14
5.04929e-14
4.84744e-06
-5.64829e-09
-5.64822e-09
2.20728e-14
5.46279e-14
4.85813e-06
-5.34366e-09
-5.34362e-09
8.2507e-15
3.70398e-14
4.86823e-06
-5.05331e-09
-5.05331e-09
-1.66366e-15
2.03347e-14
4.87779e-06
-4.781e-09
-4.78102e-09
-7.04562e-15
-2.81549e-15
4.88684e-06
-4.52539e-09
-4.52542e-09
-4.7898e-15
-1.23018e-14
4.89541e-06
-4.28155e-09
-4.28158e-09
6.98432e-16
-1.45709e-14
4.90351e-06
-4.05271e-09
-4.05273e-09
5.42266e-15
-6.32415e-15
4.91119e-06
-3.83781e-09
-3.83783e-09
8.27881e-15
2.8582e-15
4.91846e-06
-3.63268e-09
-3.63268e-09
9.53198e-15
1.4564e-14
4.92534e-06
-3.44006e-09
-3.44006e-09
1.20588e-14
2.12437e-14
4.93185e-06
-3.25904e-09
-3.25904e-09
1.71394e-14
3.13016e-14
4.93803e-06
-3.0861e-09
-3.08609e-09
1.86672e-14
3.55899e-14
4.94387e-06
-2.92358e-09
-2.92357e-09
1.51481e-14
4.10547e-14
4.94942e-06
-2.77074e-09
-2.77074e-09
4.67489e-15
3.57378e-14
4.95466e-06
-2.62457e-09
-2.62458e-09
-4.3335e-15
3.34539e-14
4.95964e-06
-2.48711e-09
-2.48714e-09
-9.55336e-15
2.34718e-14
4.96435e-06
-2.35775e-09
-2.35778e-09
-8.81203e-15
2.04444e-14
4.96882e-06
-2.23397e-09
-2.23399e-09
-9.11684e-15
1.4986e-14
4.97306e-06
-2.11751e-09
-2.11753e-09
-1.11323e-14
1.63483e-14
4.97707e-06
-2.00787e-09
-2.0079e-09
-1.47166e-14
1.29079e-14
4.98088e-06
-1.90293e-09
-1.90295e-09
-1.37819e-14
1.66622e-14
4.98449e-06
-1.80415e-09
-1.80418e-09
-1.21681e-14
1.34728e-14
4.98791e-06
-1.71112e-09
-1.71115e-09
-1.07265e-14
1.61491e-14
4.99115e-06
-1.62203e-09
-1.62205e-09
-1.02931e-14
1.46424e-14
4.99423e-06
-1.53816e-09
-1.53817e-09
-5.44429e-15
2.20693e-14
4.99715e-06
-1.45915e-09
-1.45916e-09
-3.06656e-15
2.01769e-14
4.99991e-06
-1.38346e-09
-1.38347e-09
-5.09411e-15
2.0134e-14
5.00254e-06
-1.31216e-09
-1.31217e-09
-1.4726e-14
8.41506e-15
5.00503e-06
-1.24494e-09
-1.24496e-09
-2.04798e-14
9.20897e-15
5.00739e-06
-1.18052e-09
-1.18054e-09
-1.72298e-14
1.11212e-14
5.00963e-06
-1.11984e-09
-1.11985e-09
-3.44332e-15
2.4242e-14
5.01175e-06
-1.06264e-09
-1.06265e-09
3.63785e-15
2.18048e-14
5.01377e-06
-1.0078e-09
-1.00781e-09
-1.38151e-15
1.66407e-14
5.01568e-06
-9.5611e-10
-9.5613e-10
-1.80569e-14
-1.25307e-15
5.0175e-06
-9.0736e-10
-9.07383e-10
-2.80311e-14
-1.30073e-15
5.01922e-06
-8.60616e-10
-8.60639e-10
-2.36685e-14
3.96221e-15
5.02085e-06
-8.16565e-10
-8.16581e-10
-5.12441e-15
2.27355e-14
5.0224e-06
-7.75036e-10
-7.75048e-10
5.67115e-15
2.31367e-14
5.02387e-06
-7.35196e-10
-7.35208e-10
1.4513e-15
1.80853e-14
5.02527e-06
-6.97635e-10
-6.97653e-10
-1.6941e-14
-2.21709e-15
5.02659e-06
-6.6219e-10
-6.62211e-10
-2.85813e-14
-3.70998e-15
5.02785e-06
-6.28192e-10
-6.28213e-10
-2.4777e-14
7.07086e-16
5.02904e-06
-5.96143e-10
-5.96157e-10
-5.58523e-15
2.00484e-14
5.03017e-06
-5.65923e-10
-5.65934e-10
5.25754e-15
2.0258e-14
5.03125e-06
-5.36919e-10
-5.3693e-10
3.71641e-16
1.50872e-14
5.03227e-06
-5.09564e-10
-5.09582e-10
-1.90507e-14
-5.61038e-15
5.03323e-06
-4.8374e-10
-4.83761e-10
-3.08513e-14
-6.71574e-15
5.03415e-06
-4.58965e-10
-4.58985e-10
-2.62789e-14
-2.12404e-15
5.03502e-06
-4.35606e-10
-4.3562e-10
-5.861e-15
1.71969e-14
5.03585e-06
-4.13578e-10
-4.13589e-10
5.47474e-15
1.61567e-14
5.03663e-06
-3.92427e-10
-3.92437e-10
4.04897e-16
9.53173e-15
5.03738e-06
-3.72472e-10
-3.72488e-10
-1.94509e-14
-1.23497e-14
5.03809e-06
-3.53625e-10
-3.53643e-10
-3.10138e-14
-1.3827e-14
5.03876e-06
-3.35544e-10
-3.3556e-10
-2.54797e-14
-8.85259e-15
5.03939e-06
-3.18496e-10
-3.18505e-10
-4.11207e-15
1.08922e-14
5.04e-06
-3.02422e-10
-3.02426e-10
7.5926e-15
1.02723e-14
5.04057e-06
-2.86981e-10
-2.86985e-10
2.22506e-15
3.85524e-15
5.04112e-06
-2.7241e-10
-2.7242e-10
-1.81411e-14
-1.75355e-14
5.04163e-06
-2.58643e-10
-2.58656e-10
-3.05403e-14
-1.91293e-14
5.04213e-06
-2.45435e-10
-2.45447e-10
-2.61329e-14
-1.39673e-14
5.04259e-06
-2.32982e-10
-2.32988e-10
-6.68635e-15
5.48258e-15
5.04303e-06
-2.21241e-10
-2.21245e-10
3.23004e-15
5.9252e-15
5.04345e-06
-2.09957e-10
-2.09964e-10
-3.80239e-15
3.14715e-16
5.04385e-06
-1.99307e-10
-1.99321e-10
-2.49369e-14
-1.97381e-14
5.04423e-06
-1.8924e-10
-1.89258e-10
-3.84161e-14
-2.21567e-14
5.04459e-06
-1.79583e-10
-1.79601e-10
-3.49544e-14
-1.80597e-14
5.04493e-06
-1.70482e-10
-1.70493e-10
-1.62813e-14
-2.21455e-16
5.04525e-06
-1.61907e-10
-1.61914e-10
-4.30867e-15
1.39242e-15
5.04556e-06
-1.53668e-10
-1.53675e-10
-8.60203e-15
-4.52484e-15
5.04585e-06
-1.45894e-10
-1.45905e-10
-2.49331e-14
-2.40319e-14
5.04613e-06
-1.38554e-10
-1.38567e-10
-3.24728e-14
-2.68843e-14
5.04639e-06
-1.31533e-10
-1.31541e-10
-2.44597e-14
-2.23588e-14
5.04664e-06
-1.24989e-10
-1.24987e-10
-1.24527e-14
-1.67151e-14
5.04688e-06
-1.18848e-10
-1.18842e-10
-4.84945e-15
-2.04612e-14
5.04711e-06
-1.13425e-10
-1.13418e-10
-1.49878e-14
-2.56038e-14
5.04732e-06
-1.07611e-10
-1.07612e-10
-2.6311e-14
-2.82948e-14
5.04754e-06
-1.06923e-10
-1.06934e-10
-2.97099e-14
-2.23827e-14
-9.30691e-11
-9.30732e-11
-1.77581e-14
3.15474e-14
2.42636e-06
-4.61634e-08
-2.13468e-08
5.23775e-15
2.54556e-06
-1.17606e-07
-5.74547e-08
5.70897e-15
2.686e-06
-1.39929e-07
-7.09346e-08
1.67624e-13
2.82435e-06
-1.38102e-07
-7.16472e-08
-9.69806e-14
2.95612e-06
-1.3138e-07
-6.93689e-08
-2.51371e-13
3.07771e-06
-1.21361e-07
-6.52647e-08
-4.53128e-14
3.18684e-06
-1.09201e-07
-5.97156e-08
6.45e-14
3.28394e-06
-9.74596e-08
-5.40618e-08
-5.67465e-14
3.37038e-06
-8.71241e-08
-4.89392e-08
-1.03452e-13
3.44748e-06
-7.8139e-08
-4.43714e-08
1.48247e-14
3.51647e-06
-7.03734e-08
-4.03294e-08
5.53822e-14
3.57852e-06
-6.37085e-08
-3.67956e-08
-6.89965e-14
3.63462e-06
-5.79769e-08
-3.37134e-08
-1.45276e-13
3.68557e-06
-5.29992e-08
-3.10051e-08
-8.24126e-14
3.73203e-06
-4.86319e-08
-2.86055e-08
7.63851e-14
3.77455e-06
-4.47737e-08
-2.64679e-08
1.87564e-13
3.81358e-06
-4.13377e-08
-2.45496e-08
1.25662e-13
3.84951e-06
-3.82506e-08
-2.28135e-08
-2.89812e-14
3.88268e-06
-3.54637e-08
-2.12351e-08
-1.22102e-13
3.91336e-06
-3.29379e-08
-1.97954e-08
-1.21271e-13
3.94179e-06
-3.06394e-08
-1.84773e-08
-1.2536e-14
3.96817e-06
-2.85445e-08
-1.72689e-08
1.12059e-13
3.99271e-06
-2.66289e-08
-1.61573e-08
1.59381e-13
4.01555e-06
-2.48692e-08
-1.51303e-08
1.45345e-13
4.03685e-06
-2.32503e-08
-1.41799e-08
7.25755e-14
4.05674e-06
-2.17579e-08
-1.3299e-08
-9.86734e-15
4.07532e-06
-2.03782e-08
-1.24806e-08
-5.20499e-14
4.09271e-06
-1.91031e-08
-1.17208e-08
-7.1612e-14
4.109e-06
-1.79232e-08
-1.10148e-08
-4.87202e-14
4.12427e-06
-1.68283e-08
-1.03572e-08
-1.23122e-14
4.13859e-06
-1.58109e-08
-9.74401e-09
1.88973e-14
4.15204e-06
-1.48704e-08
-9.17533e-09
4.17597e-14
4.16467e-06
-1.39856e-08
-8.63859e-09
3.60943e-14
4.17654e-06
-1.31645e-08
-8.13906e-09
1.90942e-14
4.18772e-06
-1.24014e-08
-7.67356e-09
-5.51882e-15
4.19823e-06
-1.16808e-08
-7.23302e-09
-2.99714e-14
4.20814e-06
-1.10105e-08
-6.82233e-09
-4.21433e-14
4.21747e-06
-1.03862e-08
-6.43916e-09
-4.85854e-14
4.22627e-06
-9.79546e-09
-6.07602e-09
-4.29948e-14
4.23457e-06
-9.24482e-09
-5.73706e-09
-3.21466e-14
4.2424e-06
-8.73087e-09
-5.4203e-09
-1.75752e-14
4.24979e-06
-8.24332e-09
-5.11945e-09
-1.88034e-15
4.25677e-06
-7.78776e-09
-4.83805e-09
7.07578e-15
4.26336e-06
-7.36156e-09
-4.57454e-09
1.3076e-14
4.26959e-06
-6.9563e-09
-4.32375e-09
1.15907e-14
4.27547e-06
-6.57693e-09
-4.0888e-09
1.01625e-14
4.28104e-06
-6.22145e-09
-3.86851e-09
1.01229e-14
4.2863e-06
-5.88294e-09
-3.6586e-09
1.11419e-14
4.29127e-06
-5.56572e-09
-3.46179e-09
1.21398e-14
4.29598e-06
-5.26821e-09
-3.27714e-09
1.22186e-14
4.30043e-06
-4.98458e-09
-3.10103e-09
1.12529e-14
4.30465e-06
-4.71852e-09
-2.93578e-09
1.35879e-14
4.30864e-06
-4.46873e-09
-2.7806e-09
1.81597e-14
4.31241e-06
-4.23029e-09
-2.63243e-09
2.36118e-14
4.31599e-06
-4.0064e-09
-2.49326e-09
2.42119e-14
4.31938e-06
-3.79598e-09
-2.36244e-09
2.37365e-14
4.32259e-06
-3.59491e-09
-2.23741e-09
1.98162e-14
4.32562e-06
-3.40592e-09
-2.11987e-09
1.92034e-14
4.3285e-06
-3.22815e-09
-2.00929e-09
1.89676e-14
4.33123e-06
-3.05815e-09
-1.90353e-09
1.96822e-14
4.33382e-06
-2.89828e-09
-1.80406e-09
1.65697e-14
4.33627e-06
-2.74784e-09
-1.71045e-09
1.51396e-14
4.33859e-06
-2.60389e-09
-1.62087e-09
1.38888e-14
4.34079e-06
-2.46845e-09
-1.53659e-09
1.59999e-14
4.34288e-06
-2.34093e-09
-1.45722e-09
1.43232e-14
4.34485e-06
-2.21884e-09
-1.38123e-09
1.4393e-14
4.34673e-06
-2.10393e-09
-1.30971e-09
1.38665e-14
4.34851e-06
-1.99571e-09
-1.24235e-09
1.45871e-14
4.3502e-06
-1.89205e-09
-1.17782e-09
8.34262e-15
4.35179e-06
-1.79443e-09
-1.11705e-09
5.29129e-15
4.35331e-06
-1.70242e-09
-1.05977e-09
4.67314e-15
4.35475e-06
-1.61424e-09
-1.00488e-09
1.34699e-14
4.35612e-06
-1.53118e-09
-9.5318e-10
1.98898e-14
4.35741e-06
-1.4529e-09
-9.04449e-10
2.02393e-14
4.35864e-06
-1.37787e-09
-8.57734e-10
6.94189e-15
4.3598e-06
-1.30716e-09
-8.13714e-10
-2.21857e-15
4.36091e-06
-1.24049e-09
-7.72204e-10
-4.11929e-15
4.36196e-06
-1.17655e-09
-7.32401e-10
8.63696e-15
4.36295e-06
-1.11629e-09
-6.94895e-10
1.95766e-14
4.36389e-06
-1.05948e-09
-6.5953e-10
2.22465e-14
4.36479e-06
-1.005e-09
-6.25611e-10
7.67318e-15
4.36564e-06
-9.53649e-10
-5.93635e-10
-3.5836e-15
4.36645e-06
-9.05197e-10
-5.63468e-10
-7.22259e-15
4.36721e-06
-8.58704e-10
-5.3453e-10
5.51028e-15
4.36794e-06
-8.14874e-10
-5.07252e-10
1.66722e-14
4.36863e-06
-7.73542e-10
-4.81524e-10
1.95343e-14
4.36928e-06
-7.33896e-10
-4.56838e-10
4.54465e-15
4.3699e-06
-6.96509e-10
-4.33557e-10
-6.57771e-15
4.37049e-06
-6.6122e-10
-4.11586e-10
-9.83669e-15
4.37105e-06
-6.27344e-10
-3.90503e-10
3.63683e-15
4.37158e-06
-5.954e-10
-3.70625e-10
1.4774e-14
4.37208e-06
-5.65272e-10
-3.51872e-10
1.68902e-14
4.37256e-06
-5.36366e-10
-3.33871e-10
5.72353e-16
4.37301e-06
-5.091e-10
-3.1689e-10
-1.15266e-14
4.37344e-06
-4.83354e-10
-3.0086e-10
-1.51431e-14
4.37385e-06
-4.58631e-10
-2.85475e-10
-1.52757e-15
4.37424e-06
-4.35317e-10
-2.70969e-10
9.80224e-15
4.37461e-06
-4.13328e-10
-2.57284e-10
1.19176e-14
4.37496e-06
-3.92231e-10
-2.44144e-10
-4.30769e-15
4.37529e-06
-3.72326e-10
-2.31747e-10
-1.64115e-14
4.3756e-06
-3.53525e-10
-2.2004e-10
-2.00391e-14
4.3759e-06
-3.35465e-10
-2.08804e-10
-6.79636e-15
4.37619e-06
-3.18433e-10
-1.9821e-10
4.77123e-15
4.37646e-06
-3.02369e-10
-1.88214e-10
7.55222e-15
4.37671e-06
-2.86956e-10
-1.78614e-10
-7.14661e-15
4.37695e-06
-2.7241e-10
-1.69555e-10
-1.86097e-14
4.37718e-06
-2.58668e-10
-1.60998e-10
-2.2381e-14
4.3774e-06
-2.45464e-10
-1.52784e-10
-1.09873e-14
4.37761e-06
-2.33013e-10
-1.45041e-10
-8.93581e-17
4.37781e-06
-2.21277e-10
-1.37738e-10
3.15381e-15
4.37799e-06
-2.10023e-10
-1.30724e-10
-1.01627e-14
4.37817e-06
-1.99405e-10
-1.24109e-10
-2.07515e-14
4.37834e-06
-1.89386e-10
-1.17871e-10
-1.90012e-14
4.3785e-06
-1.79786e-10
-1.11897e-10
-8.05054e-15
4.37865e-06
-1.70829e-10
-1.06319e-10
4.7437e-15
4.3788e-06
-1.62429e-10
-1.01083e-10
-2.50754e-15
4.37894e-06
-1.54989e-10
-9.6439e-11
4.8767e-15
4.37907e-06
-1.47099e-10
-9.151e-11
-2.52654e-14
4.3792e-06
-1.45784e-10
-9.07165e-11
-3.1272e-15
-1.27304e-10
-7.92875e-11
6.79153e-16
2.24187e-06
-8.6756e-08
-2.61138e-08
9.32733e-15
2.38909e-06
-1.97388e-07
-6.74304e-08
1.04634e-13
2.53921e-06
-2.11328e-07
-7.87193e-08
6.9419e-14
2.67609e-06
-1.98088e-07
-7.69038e-08
-4.30325e-14
2.79712e-06
-1.80161e-07
-7.22501e-08
-1.68661e-13
2.89879e-06
-1.57541e-07
-6.54841e-08
-1.97338e-14
2.98199e-06
-1.34694e-07
-5.7701e-08
8.85897e-14
3.04995e-06
-1.14978e-07
-5.04499e-08
-8.13901e-14
3.10567e-06
-9.86488e-08
-4.41926e-08
-2.32396e-13
3.15161e-06
-8.52041e-08
-3.88675e-08
-1.40097e-13
3.18984e-06
-7.42131e-08
-3.43914e-08
6.99826e-14
3.22201e-06
-6.52306e-08
-3.06593e-08
1.42743e-13
3.2494e-06
-5.78287e-08
-2.7535e-08
5.93128e-15
3.27295e-06
-5.16545e-08
-2.48895e-08
-1.48717e-13
3.29339e-06
-4.6442e-08
-2.26221e-08
-1.48681e-13
3.31126e-06
-4.19968e-08
-2.06595e-08
-2.45721e-14
3.32703e-06
-3.81634e-08
-1.89416e-08
1.4198e-13
3.34102e-06
-3.48211e-08
-1.74214e-08
2.1065e-13
3.35351e-06
-3.1886e-08
-1.60677e-08
1.10944e-13
3.36472e-06
-2.9292e-08
-1.48556e-08
-3.61923e-14
3.37484e-06
-2.69845e-08
-1.37641e-08
-1.23545e-13
3.38399e-06
-2.49233e-08
-1.27777e-08
-1.07282e-13
3.39231e-06
-2.30723e-08
-1.1882e-08
3.03786e-15
3.39991e-06
-2.14e-08
-1.10644e-08
1.16582e-13
3.40686e-06
-1.98846e-08
-1.03165e-08
1.76545e-13
3.41324e-06
-1.85068e-08
-9.63077e-09
1.62364e-13
3.41911e-06
-1.72491e-08
-9.0002e-09
8.15344e-14
3.42453e-06
-1.60999e-08
-8.42021e-09
-9.07258e-15
3.42954e-06
-1.50471e-08
-7.88583e-09
-7.84769e-14
3.43418e-06
-1.40791e-08
-7.39181e-09
-9.89119e-14
3.43849e-06
-1.31868e-08
-6.93418e-09
-7.44954e-14
3.4425e-06
-1.23678e-08
-6.51226e-09
-2.96151e-14
3.44623e-06
-1.16027e-08
-6.11648e-09
1.71708e-14
3.44971e-06
-1.08969e-08
-5.75009e-09
4.58823e-14
3.45297e-06
-1.02444e-08
-5.41038e-09
5.00614e-14
3.45601e-06
-9.63177e-09
-5.09056e-09
3.42997e-14
3.45886e-06
-9.06439e-09
-4.79372e-09
1.86902e-15
3.46153e-06
-8.53809e-09
-4.51787e-09
-2.84332e-14
3.46403e-06
-8.0421e-09
-4.25744e-09
-5.26521e-14
3.46638e-06
-7.58122e-09
-4.01511e-09
-5.93543e-14
3.4686e-06
-7.15227e-09
-3.78927e-09
-5.27539e-14
3.47067e-06
-6.74649e-09
-3.57536e-09
-3.64879e-14
3.47263e-06
-6.36821e-09
-3.37573e-09
-1.79276e-14
3.47447e-06
-6.01507e-09
-3.18919e-09
4.05055e-16
3.47621e-06
-5.67999e-09
-3.01204e-09
1.34889e-14
3.47784e-06
-5.36688e-09
-2.8464e-09
2.41146e-14
3.47939e-06
-5.07399e-09
-2.69137e-09
2.84149e-14
3.48084e-06
-4.79553e-09
-2.54392e-09
2.86879e-14
3.48222e-06
-4.53494e-09
-2.40588e-09
2.20271e-14
3.48352e-06
-4.29084e-09
-2.27653e-09
1.67369e-14
3.48475e-06
-4.0584e-09
-2.15333e-09
1.09212e-14
3.48591e-06
-3.84055e-09
-2.03785e-09
1.17503e-14
3.487e-06
-3.6362e-09
-1.92949e-09
1.41984e-14
3.48804e-06
-3.44129e-09
-1.82612e-09
1.76798e-14
3.48902e-06
-3.25839e-09
-1.7291e-09
1.78402e-14
3.48995e-06
-3.08661e-09
-1.63796e-09
1.96443e-14
3.49083e-06
-2.92255e-09
-1.55091e-09
2.07333e-14
3.49166e-06
-2.76842e-09
-1.46912e-09
2.45016e-14
3.49245e-06
-2.62353e-09
-1.39222e-09
2.60426e-14
3.49319e-06
-2.48503e-09
-1.31872e-09
2.57059e-14
3.4939e-06
-2.35483e-09
-1.24962e-09
2.18971e-14
3.49457e-06
-2.23237e-09
-1.18462e-09
2.01392e-14
3.4952e-06
-2.11522e-09
-1.12244e-09
1.85304e-14
3.4958e-06
-2.00503e-09
-1.06396e-09
1.99403e-14
3.49637e-06
-1.90131e-09
-1.00891e-09
1.75917e-14
3.49691e-06
-1.80204e-09
-9.56216e-10
1.54794e-14
3.49742e-06
-1.70861e-09
-9.06634e-10
1.28071e-14
3.49791e-06
-1.62064e-09
-8.59942e-10
1.06718e-14
3.49837e-06
-1.53638e-09
-8.15218e-10
6.12137e-15
3.4988e-06
-1.45704e-09
-7.73104e-10
7.37964e-15
3.49922e-06
-1.38228e-09
-7.3342e-10
1.18398e-14
3.49961e-06
-1.31064e-09
-6.95401e-10
1.91364e-14
3.49998e-06
-1.24316e-09
-6.59593e-10
2.07694e-14
3.50033e-06
-1.17958e-09
-6.25847e-10
1.49245e-14
3.50067e-06
-1.11864e-09
-5.93497e-10
3.32459e-15
3.50098e-06
-1.06122e-09
-5.63017e-10
6.35952e-16
3.50128e-06
-1.00707e-09
-5.34278e-10
6.3123e-15
3.50157e-06
-9.55143e-10
-5.0673e-10
1.76349e-14
3.50184e-06
-9.06211e-10
-4.80771e-10
2.22992e-14
3.5021e-06
-8.60086e-10
-4.56296e-10
1.63945e-14
3.50234e-06
-8.15859e-10
-4.32817e-10
2.63324e-15
3.50257e-06
-7.74166e-10
-4.10686e-10
-2.26857e-15
3.50279e-06
-7.34826e-10
-3.89809e-10
2.56273e-15
3.503e-06
-6.97077e-10
-3.69788e-10
1.41207e-14
3.5032e-06
-6.61492e-10
-3.50914e-10
1.93535e-14
3.50338e-06
-6.27941e-10
-3.33114e-10
1.35355e-14
3.50356e-06
-5.95758e-10
-3.16029e-10
-2.15286e-16
3.50373e-06
-5.65408e-10
-2.99919e-10
-4.86101e-15
3.50389e-06
-5.36757e-10
-2.84716e-10
6.54337e-16
3.50404e-06
-5.09253e-10
-2.70133e-10
1.26767e-14
3.50419e-06
-4.83319e-10
-2.56381e-10
1.78523e-14
3.50432e-06
-4.58864e-10
-2.43408e-10
1.11491e-14
3.50445e-06
-4.35403e-10
-2.3095e-10
-3.70188e-15
3.50458e-06
-4.1327e-10
-2.19201e-10
-9.29325e-15
3.50469e-06
-3.92368e-10
-2.0811e-10
-4.21079e-15
3.50481e-06
-3.72296e-10
-1.97471e-10
7.64336e-15
3.50491e-06
-3.53368e-10
-1.87438e-10
1.27836e-14
3.50501e-06
-3.35522e-10
-1.77971e-10
5.90934e-15
3.50511e-06
-3.184e-10
-1.68878e-10
-9.09725e-15
3.5052e-06
-3.02244e-10
-1.60301e-10
-1.50129e-14
3.50528e-06
-2.86979e-10
-1.52201e-10
-1.01018e-14
3.50536e-06
-2.72316e-10
-1.44432e-10
1.8065e-15
3.50544e-06
-2.58487e-10
-1.37104e-10
7.5967e-15
3.50551e-06
-2.45451e-10
-1.30191e-10
1.84069e-15
3.50558e-06
-2.32942e-10
-1.23547e-10
-1.19546e-14
3.50565e-06
-2.21137e-10
-1.17279e-10
-1.73349e-14
3.50571e-06
-2.0998e-10
-1.1136e-10
-1.29987e-14
3.50577e-06
-1.99259e-10
-1.05681e-10
-2.68081e-15
3.50583e-06
-1.8915e-10
-1.00326e-10
2.16966e-15
3.50588e-06
-1.79624e-10
-9.52737e-11
-2.00533e-15
3.50593e-06
-1.7049e-10
-9.04185e-11
-1.38815e-14
3.50598e-06
-1.61875e-10
-8.58422e-11
-1.76509e-14
3.50603e-06
-1.53743e-10
-8.15287e-11
-1.19577e-14
3.50607e-06
-1.45953e-10
-7.74007e-11
-1.35386e-15
3.50611e-06
-1.38685e-10
-7.35417e-11
6.30041e-16
3.50615e-06
-1.31879e-10
-6.99183e-11
4.6149e-16
3.50619e-06
-1.25811e-10
-6.6692e-11
-1.15616e-14
3.50622e-06
-1.19446e-10
-6.32819e-11
-7.74627e-15
3.50626e-06
-1.1777e-10
-6.25339e-11
-2.41055e-14
-1.03864e-10
-5.50114e-11
-1.69663e-14
2.0893e-06
-3.81547e-08
-1.66853e-07
-3.54219e-15
2.27783e-06
-8.48467e-08
-3.01066e-07
1.21192e-13
2.41945e-06
-8.83611e-08
-2.64581e-07
-1.14984e-13
2.51966e-06
-8.06963e-08
-2.17616e-07
-5.72325e-14
2.58454e-06
-7.10333e-08
-1.74014e-07
4.04014e-14
2.62126e-06
-5.98135e-08
-1.34429e-07
9.76267e-14
2.63991e-06
-4.91714e-08
-1.04176e-07
-4.53466e-14
2.64768e-06
-4.04161e-08
-8.23423e-08
-2.41183e-13
2.64883e-06
-3.34628e-08
-6.63326e-08
-1.79627e-13
2.64611e-06
-2.79836e-08
-5.45007e-08
3.45892e-14
2.64132e-06
-2.37188e-08
-4.56994e-08
1.34557e-13
2.6355e-06
-2.04052e-08
-3.90162e-08
7.35167e-14
2.62929e-06
-1.77998e-08
-3.38116e-08
-7.14694e-14
2.62302e-06
-1.57141e-08
-2.96639e-08
-1.7205e-13
2.61687e-06
-1.40118e-08
-2.62887e-08
-1.08706e-13
2.61096e-06
-1.25963e-08
-2.3492e-08
5.53561e-14
2.60533e-06
-1.13973e-08
-2.11354e-08
1.7744e-13
2.6e-06
-1.03649e-08
-1.91208e-08
1.96357e-13
2.59496e-06
-9.46651e-09
-1.7382e-08
8.69533e-14
2.59022e-06
-8.67761e-09
-1.58684e-08
-6.36525e-14
2.58575e-06
-7.97862e-09
-1.45397e-08
-1.22338e-13
2.58155e-06
-7.35543e-09
-1.3366e-08
-8.26115e-14
2.57759e-06
-6.79631e-09
-1.2322e-08
1.89786e-14
2.57387e-06
-6.29164e-09
-1.13869e-08
1.25344e-13
2.57037e-06
-5.83501e-09
-1.05465e-08
1.59855e-13
2.56707e-06
-5.42077e-09
-9.78803e-09
1.25347e-13
2.56397e-06
-5.04364e-09
-9.1005e-09
4.79946e-14
2.56104e-06
-4.6999e-09
-8.47604e-09
-3.79962e-14
2.55829e-06
-4.38573e-09
-7.907e-09
-8.5548e-14
2.55569e-06
-4.0974e-09
-7.3861e-09
-9.3111e-14
2.55324e-06
-3.83207e-09
-6.9078e-09
-6.5519e-14
2.55094e-06
-3.58891e-09
-6.47019e-09
-2.10847e-14
2.54876e-06
-3.36227e-09
-6.06279e-09
1.45213e-14
2.5467e-06
-3.15365e-09
-5.68806e-09
3.5838e-14
2.54476e-06
-2.96128e-09
-5.34261e-09
3.28108e-14
2.54293e-06
-2.78117e-09
-5.01915e-09
1.22592e-14
2.5412e-06
-2.61477e-09
-4.72027e-09
-1.55246e-14
2.53957e-06
-2.46077e-09
-4.44359e-09
-4.24672e-14
2.53803e-06
-2.31594e-09
-4.1833e-09
-5.62307e-14
2.53657e-06
-2.18159e-09
-3.94179e-09
-5.78194e-14
2.53519e-06
-2.05672e-09
-3.71727e-09
-4.84333e-14
2.53389e-06
-1.93877e-09
-3.50512e-09
-3.25871e-14
2.53266e-06
-1.82894e-09
-3.30754e-09
-1.54291e-14
2.53149e-06
-1.72655e-09
-3.12325e-09
1.8408e-15
2.53039e-06
-1.62953e-09
-2.94854e-09
1.52892e-14
2.52935e-06
-1.53899e-09
-2.78543e-09
2.45012e-14
2.52836e-06
-1.45441e-09
-2.63296e-09
2.74955e-14
2.52743e-06
-1.3741e-09
-2.48811e-09
2.47529e-14
2.52654e-06
-1.29902e-09
-2.35264e-09
1.97518e-14
2.52571e-06
-1.22876e-09
-2.22579e-09
1.54344e-14
2.52492e-06
-1.16191e-09
-2.10505e-09
1.45022e-14
2.52417e-06
-1.09929e-09
-1.99193e-09
1.57112e-14
2.52346e-06
-1.04059e-09
-1.88584e-09
1.71826e-14
2.52278e-06
-9.84623e-10
-1.78467e-09
1.73634e-14
2.52215e-06
-9.32127e-10
-1.68976e-09
1.69046e-14
2.52154e-06
-8.82835e-10
-1.60062e-09
1.83025e-14
2.52097e-06
-8.35781e-10
-1.5155e-09
2.09206e-14
2.52043e-06
-7.91595e-10
-1.43555e-09
2.2951e-14
2.51992e-06
-7.50075e-10
-1.36041e-09
2.18232e-14
2.51943e-06
-7.10404e-10
-1.28859e-09
1.86454e-14
2.51897e-06
-6.73127e-10
-1.22109e-09
1.62229e-14
2.51854e-06
-6.3807e-10
-1.15759e-09
1.57732e-14
2.51812e-06
-6.04545e-10
-1.09685e-09
1.53552e-14
2.51773e-06
-5.73015e-10
-1.03973e-09
1.42601e-14
2.51736e-06
-5.43346e-10
-9.85965e-10
1.20424e-14
2.517e-06
-5.14954e-10
-9.34506e-10
9.36755e-15
2.51667e-06
-4.8824e-10
-8.86081e-10
6.50065e-15
2.51635e-06
-4.6308e-10
-8.40474e-10
4.10831e-15
2.51605e-06
-4.38982e-10
-7.9679e-10
3.15797e-15
2.51577e-06
-4.1629e-10
-7.55652e-10
6.46434e-15
2.5155e-06
-3.94916e-10
-7.16889e-10
1.15558e-14
2.51524e-06
-3.7444e-10
-6.7975e-10
1.38833e-14
2.515e-06
-3.5516e-10
-6.44775e-10
1.01965e-14
2.51477e-06
-3.36986e-10
-6.11815e-10
3.33902e-15
2.51455e-06
-3.19564e-10
-5.80218e-10
-1.01199e-15
2.51434e-06
-3.03147e-10
-5.50439e-10
2.77742e-15
2.51414e-06
-2.87674e-10
-5.22358e-10
1.09359e-14
2.51396e-06
-2.72843e-10
-4.95435e-10
1.58698e-14
2.51378e-06
-2.5887e-10
-4.70073e-10
1.23797e-14
2.51361e-06
-2.45692e-10
-4.46163e-10
3.63913e-15
2.51345e-06
-2.3305e-10
-4.23229e-10
-3.01905e-15
2.5133e-06
-2.2113e-10
-4.016e-10
-3.53623e-16
2.51316e-06
-2.09891e-10
-3.81192e-10
7.95169e-15
2.51302e-06
-1.99112e-10
-3.61616e-10
1.36005e-14
2.51289e-06
-1.88955e-10
-3.4317e-10
1.05935e-14
2.51277e-06
-1.7937e-10
-3.25776e-10
1.99113e-15
2.51265e-06
-1.7017e-10
-3.09084e-10
-4.62791e-15
2.51254e-06
-1.61491e-10
-2.93334e-10
-1.59277e-15
2.51244e-06
-1.53307e-10
-2.78466e-10
7.14833e-15
2.51234e-06
-1.45455e-10
-2.642e-10
1.28932e-14
2.51224e-06
-1.38055e-10
-2.50756e-10
9.33314e-15
2.51215e-06
-1.31069e-10
-2.38078e-10
-2.5103e-16
2.51207e-06
-1.2436e-10
-2.25907e-10
-7.92892e-15
2.51199e-06
-1.18029e-10
-2.14417e-10
-5.60302e-15
2.51191e-06
-1.12058e-10
-2.03568e-10
2.78123e-15
2.51184e-06
-1.06331e-10
-1.93156e-10
8.36752e-15
2.51177e-06
-1.00933e-10
-1.83345e-10
4.67331e-15
2.5117e-06
-9.58346e-11
-1.74094e-10
-5.12291e-15
2.51164e-06
-9.0937e-11
-1.6521e-10
-1.30727e-14
2.51158e-06
-8.63137e-11
-1.5682e-10
-1.10818e-14
2.51152e-06
-8.19535e-11
-1.48894e-10
-2.83867e-15
2.51147e-06
-7.77708e-11
-1.41287e-10
2.98455e-15
2.51142e-06
-7.38289e-11
-1.34119e-10
9.36065e-17
2.51137e-06
-7.01054e-11
-1.27363e-10
-8.57199e-15
2.51133e-06
-6.65274e-11
-1.20873e-10
-1.53715e-14
2.51128e-06
-6.31488e-11
-1.14741e-10
-1.28189e-14
2.51124e-06
-5.99624e-11
-1.08946e-10
-4.34884e-15
2.5112e-06
-5.69053e-11
-1.03383e-10
9.7216e-16
2.51117e-06
-5.40243e-11
-9.81442e-11
-2.35578e-15
2.51113e-06
-5.13031e-11
-9.32084e-11
-1.05387e-14
2.5111e-06
-4.86888e-11
-8.84689e-11
-1.5135e-14
2.51107e-06
-4.62225e-11
-8.39926e-11
-1.06199e-14
2.51103e-06
-4.39014e-11
-7.97699e-11
-2.36784e-15
2.51101e-06
-4.16794e-11
-7.57321e-11
1.77917e-15
2.51098e-06
-3.9604e-11
-7.19696e-11
-2.02632e-15
2.51095e-06
-3.76536e-11
-6.84478e-11
-6.20901e-15
2.51093e-06
-3.59002e-11
-6.52722e-11
-7.51832e-15
2.51091e-06
-3.40874e-11
-6.20295e-11
-7.54283e-15
2.51088e-06
-3.34907e-11
-6.05989e-11
-9.24406e-15
-2.99064e-11
-5.53527e-11
-9.90057e-15
2.42636e-06
-2.13468e-08
-4.61634e-08
-1.7296e-14
2.54556e-06
-5.74547e-08
-1.17606e-07
-2.75399e-14
2.686e-06
-7.09345e-08
-1.39929e-07
-4.86684e-14
2.82435e-06
-7.16471e-08
-1.38102e-07
-2.18524e-13
2.95612e-06
-6.93687e-08
-1.3138e-07
-6.05697e-14
3.07771e-06
-6.52648e-08
-1.21361e-07
2.10917e-13
3.18684e-06
-5.97158e-08
-1.09201e-07
-2.99046e-14
3.28394e-06
-5.40619e-08
-9.74596e-08
-3.73257e-13
3.37038e-06
-4.89391e-08
-8.71241e-08
-1.94385e-13
3.44748e-06
-4.43713e-08
-7.8139e-08
1.78574e-13
3.51647e-06
-4.03294e-08
-7.03734e-08
1.27048e-13
3.57852e-06
-3.67955e-08
-6.37085e-08
-2.15883e-13
3.63462e-06
-3.37133e-08
-5.79769e-08
-2.6438e-13
3.68557e-06
-3.10053e-08
-5.29991e-08
1.18544e-14
3.73203e-06
-2.86058e-08
-4.86317e-08
2.23214e-13
3.77455e-06
-2.64681e-08
-4.47737e-08
1.97687e-13
3.81358e-06
-2.45495e-08
-4.1338e-08
-5.07131e-14
3.84951e-06
-2.2813e-08
-3.82509e-08
-2.8487e-13
3.88268e-06
-2.12348e-08
-3.54638e-08
-2.36108e-13
3.91336e-06
-1.97954e-08
-3.29377e-08
-5.94519e-15
3.94179e-06
-1.84776e-08
-3.06391e-08
1.98139e-13
3.96817e-06
-1.72693e-08
-2.85443e-08
2.80107e-13
3.99271e-06
-1.61576e-08
-2.66288e-08
1.81254e-13
4.01555e-06
-1.51302e-08
-2.48693e-08
4.18529e-15
4.03685e-06
-1.41796e-08
-2.32506e-08
-1.23062e-13
4.05674e-06
-1.32987e-08
-2.17581e-08
-1.67764e-13
4.07532e-06
-1.24803e-08
-2.03783e-08
-1.1634e-13
4.09272e-06
-1.17207e-08
-1.9103e-08
-2.80206e-14
4.109e-06
-1.10149e-08
-1.7923e-08
4.27227e-14
4.12427e-06
-1.03575e-08
-1.68282e-08
8.20718e-14
4.13859e-06
-9.74425e-09
-1.58108e-08
7.25258e-14
4.15204e-06
-9.17549e-09
-1.48703e-08
3.60138e-14
4.16467e-06
-8.63863e-09
-1.39857e-08
-1.14933e-14
4.17654e-06
-8.139e-09
-1.31646e-08
-5.26801e-14
4.18772e-06
-7.67343e-09
-1.24015e-08
-6.8704e-14
4.19823e-06
-7.23287e-09
-1.16809e-08
-6.37605e-14
4.20814e-06
-6.82222e-09
-1.10106e-08
-4.16367e-14
4.21747e-06
-6.43911e-09
-1.03862e-08
-1.42274e-14
4.22627e-06
-6.07604e-09
-9.79542e-09
8.22839e-15
4.23457e-06
-5.73713e-09
-9.24475e-09
2.44148e-14
4.2424e-06
-5.4204e-09
-8.7308e-09
3.03612e-14
4.24979e-06
-5.11955e-09
-8.24326e-09
2.86169e-14
4.25677e-06
-4.83813e-09
-7.78771e-09
1.95822e-14
4.26336e-06
-4.57459e-09
-7.36154e-09
8.74199e-15
4.26959e-06
-4.32377e-09
-6.95631e-09
8.19625e-16
4.27547e-06
-4.08879e-09
-6.57695e-09
-1.36913e-15
4.28104e-06
-3.86848e-09
-6.22148e-09
2.70286e-15
4.2863e-06
-3.65856e-09
-5.88296e-09
7.74393e-15
4.29127e-06
-3.46176e-09
-5.56573e-09
1.09012e-14
4.29598e-06
-3.27712e-09
-5.26821e-09
1.19189e-14
4.30043e-06
-3.10102e-09
-4.98457e-09
1.2383e-14
4.30465e-06
-2.93579e-09
-4.71851e-09
1.65382e-14
4.30864e-06
-2.78061e-09
-4.46872e-09
2.22389e-14
4.31241e-06
-2.63244e-09
-4.23029e-09
2.34899e-14
4.31599e-06
-2.49327e-09
-4.00639e-09
1.58361e-14
4.31938e-06
-2.36245e-09
-3.79598e-09
4.30716e-15
4.32259e-06
-2.2374e-09
-3.59492e-09
-4.67022e-15
4.32562e-06
-2.11985e-09
-3.40593e-09
-6.4593e-15
4.3285e-06
-2.00927e-09
-3.22817e-09
-4.19963e-15
4.33123e-06
-1.9035e-09
-3.05816e-09
-4.25152e-15
4.33382e-06
-1.80403e-09
-2.89829e-09
-9.40918e-15
4.33627e-06
-1.71042e-09
-2.74786e-09
-1.30209e-14
4.33859e-06
-1.62085e-09
-2.60391e-09
-1.14728e-14
4.34079e-06
-1.53656e-09
-2.46847e-09
-7.50882e-15
4.34288e-06
-1.45719e-09
-2.34095e-09
-6.80618e-15
4.34485e-06
-1.38121e-09
-2.21886e-09
-6.08854e-15
4.34673e-06
-1.30969e-09
-2.10394e-09
-3.81848e-15
4.34851e-06
-1.24234e-09
-1.99572e-09
-2.86734e-15
4.3502e-06
-1.17781e-09
-1.89206e-09
-8.34751e-15
4.35179e-06
-1.11703e-09
-1.79444e-09
-1.62298e-14
4.35331e-06
-1.05975e-09
-1.70243e-09
-1.92741e-14
4.35475e-06
-1.00486e-09
-1.61425e-09
-1.09861e-14
4.35612e-06
-9.53165e-10
-1.53119e-09
1.28753e-15
4.35741e-06
-9.04439e-10
-1.45291e-09
4.77147e-15
4.35864e-06
-8.57724e-10
-1.37788e-09
-6.5249e-15
4.3598e-06
-8.13697e-10
-1.30718e-09
-2.18185e-14
4.36091e-06
-7.72181e-10
-1.2405e-09
-2.75538e-14
4.36196e-06