/*--------------------------------*- C++ -*----------------------------------*\
  =========                 |
  \\      /  F ield         | OpenFOAM: The Open Source CFD Toolbox
   \\    /   O peration     | Website:  https://openfoam.org
    \\  /    A nd           | Version:  12
     \\/     M anipulation  |
\*---------------------------------------------------------------------------*/
FoamFile
{
    format      ascii;
    class       volVectorField;
    location    "299";
    object      U;
}
// * * * * * * * * * * * * * * * * * * * * * * * * * * * * * * * * * * * * * //

dimensions      [0 1 -1 0 0 0 0];

internalField   nonuniform List<vector> 
23040
(
(-9.1024e-08 -9.10241e-08 2.23675e-05)
(-2.37187e-07 -2.37188e-07 2.29993e-05)
(-2.99564e-07 -2.99565e-07 2.41336e-05)
(-3.06413e-07 -3.06413e-07 2.54401e-05)
(-2.97045e-07 -2.97045e-07 2.66862e-05)
(-2.80826e-07 -2.80826e-07 2.78399e-05)
(-2.59323e-07 -2.59322e-07 2.89147e-05)
(-2.37286e-07 -2.37285e-07 2.99031e-05)
(-2.17687e-07 -2.17686e-07 3.0801e-05)
(-2.00652e-07 -2.00652e-07 3.16183e-05)
(-1.85737e-07 -1.85739e-07 3.23675e-05)
(-1.72703e-07 -1.72703e-07 3.30574e-05)
(-1.61262e-07 -1.61261e-07 3.36949e-05)
(-1.51072e-07 -1.51069e-07 3.42861e-05)
(-1.41858e-07 -1.41857e-07 3.48361e-05)
(-1.33435e-07 -1.33436e-07 3.53489e-05)
(-1.25661e-07 -1.25665e-07 3.58278e-05)
(-1.18427e-07 -1.18429e-07 3.62757e-05)
(-1.11654e-07 -1.11654e-07 3.66951e-05)
(-1.05297e-07 -1.05295e-07 3.70882e-05)
(-9.93266e-08 -9.93239e-08 3.74569e-05)
(-9.37164e-08 -9.37147e-08 3.78029e-05)
(-8.84392e-08 -8.84395e-08 3.81278e-05)
(-8.3469e-08 -8.34708e-08 3.8433e-05)
(-7.87829e-08 -7.87853e-08 3.87198e-05)
(-7.43633e-08 -7.43652e-08 3.89897e-05)
(-7.01966e-08 -7.01973e-08 3.92435e-05)
(-6.62709e-08 -6.62706e-08 3.94825e-05)
(-6.25746e-08 -6.25736e-08 3.97075e-05)
(-5.90952e-08 -5.90942e-08 3.99195e-05)
(-5.58197e-08 -5.5819e-08 4.01192e-05)
(-5.27342e-08 -5.27341e-08 4.03075e-05)
(-4.98265e-08 -4.98269e-08 4.0485e-05)
(-4.70854e-08 -4.70861e-08 4.06524e-05)
(-4.45e-08 -4.45007e-08 4.08104e-05)
(-4.20618e-08 -4.20623e-08 4.09596e-05)
(-3.97629e-08 -3.97631e-08 4.11004e-05)
(-3.75951e-08 -3.7595e-08 4.12334e-05)
(-3.55514e-08 -3.55511e-08 4.1359e-05)
(-3.36248e-08 -3.36243e-08 4.14777e-05)
(-3.18076e-08 -3.18071e-08 4.15898e-05)
(-3.00934e-08 -3.0093e-08 4.16959e-05)
(-2.84758e-08 -2.84756e-08 4.17961e-05)
(-2.69486e-08 -2.69485e-08 4.18909e-05)
(-2.55063e-08 -2.55064e-08 4.19806e-05)
(-2.41441e-08 -2.41443e-08 4.20654e-05)
(-2.28571e-08 -2.28572e-08 4.21457e-05)
(-2.1641e-08 -2.16412e-08 4.22216e-05)
(-2.04922e-08 -2.04923e-08 4.22935e-05)
(-1.94064e-08 -1.94065e-08 4.23616e-05)
(-1.83803e-08 -1.83804e-08 4.2426e-05)
(-1.74106e-08 -1.74107e-08 4.2487e-05)
(-1.64938e-08 -1.64938e-08 4.25448e-05)
(-1.56269e-08 -1.56269e-08 4.25995e-05)
(-1.48071e-08 -1.48071e-08 4.26514e-05)
(-1.40314e-08 -1.40316e-08 4.27005e-05)
(-1.32976e-08 -1.32978e-08 4.2747e-05)
(-1.26031e-08 -1.26034e-08 4.27911e-05)
(-1.19458e-08 -1.1946e-08 4.28329e-05)
(-1.13235e-08 -1.13238e-08 4.28725e-05)
(-1.07345e-08 -1.07347e-08 4.291e-05)
(-1.01768e-08 -1.0177e-08 4.29456e-05)
(-9.64869e-09 -9.64897e-09 4.29793e-05)
(-9.1487e-09 -9.14896e-09 4.30113e-05)
(-8.67505e-09 -8.6753e-09 4.30416e-05)
(-8.22644e-09 -8.22666e-09 4.30704e-05)
(-7.80158e-09 -7.80178e-09 4.30977e-05)
(-7.3991e-09 -7.39928e-09 4.31235e-05)
(-7.01776e-09 -7.01793e-09 4.3148e-05)
(-6.65639e-09 -6.65657e-09 4.31713e-05)
(-6.31381e-09 -6.31403e-09 4.31933e-05)
(-5.98915e-09 -5.98938e-09 4.32143e-05)
(-5.68153e-09 -5.68174e-09 4.32341e-05)
(-5.38994e-09 -5.3901e-09 4.32529e-05)
(-5.11347e-09 -5.11361e-09 4.32708e-05)
(-4.8513e-09 -4.85146e-09 4.32877e-05)
(-4.60263e-09 -4.60285e-09 4.33038e-05)
(-4.36691e-09 -4.36715e-09 4.33191e-05)
(-4.14353e-09 -4.14376e-09 4.33335e-05)
(-3.93175e-09 -3.93191e-09 4.33473e-05)
(-3.73084e-09 -3.73097e-09 4.33603e-05)
(-3.54022e-09 -3.54037e-09 4.33726e-05)
(-3.35934e-09 -3.35954e-09 4.33844e-05)
(-3.18784e-09 -3.18806e-09 4.33955e-05)
(-3.0253e-09 -3.0255e-09 4.34061e-05)
(-2.87117e-09 -2.8713e-09 4.34161e-05)
(-2.72487e-09 -2.72498e-09 4.34256e-05)
(-2.586e-09 -2.58613e-09 4.34346e-05)
(-2.45417e-09 -2.45436e-09 4.34432e-05)
(-2.32917e-09 -2.32938e-09 4.34513e-05)
(-2.21071e-09 -2.2109e-09 4.3459e-05)
(-2.09836e-09 -2.09847e-09 4.34664e-05)
(-1.99167e-09 -1.99175e-09 4.34733e-05)
(-1.89034e-09 -1.89042e-09 4.34799e-05)
(-1.7941e-09 -1.79424e-09 4.34862e-05)
(-1.70286e-09 -1.70302e-09 4.34921e-05)
(-1.61642e-09 -1.61654e-09 4.34978e-05)
(-1.53445e-09 -1.53449e-09 4.35031e-05)
(-1.45656e-09 -1.45657e-09 4.35082e-05)
(-1.38254e-09 -1.38256e-09 4.3513e-05)
(-1.31221e-09 -1.3123e-09 4.35176e-05)
(-1.24555e-09 -1.24567e-09 4.3522e-05)
(-1.18242e-09 -1.18252e-09 4.35261e-05)
(-1.12255e-09 -1.12259e-09 4.353e-05)
(-1.06563e-09 -1.06567e-09 4.35337e-05)
(-1.0115e-09 -1.01157e-09 4.35373e-05)
(-9.60051e-10 -9.60195e-10 4.35406e-05)
(-9.1131e-10 -9.11473e-10 4.35438e-05)
(-8.65182e-10 -8.65317e-10 4.35468e-05)
(-8.21474e-10 -8.21541e-10 4.35497e-05)
(-7.79918e-10 -7.79955e-10 4.35524e-05)
(-7.404e-10 -7.4044e-10 4.3555e-05)
(-7.02886e-10 -7.02953e-10 4.35574e-05)
(-6.67453e-10 -6.67497e-10 4.35598e-05)
(-6.34247e-10 -6.34215e-10 4.3562e-05)
(-6.02888e-10 -6.02762e-10 4.35641e-05)
(-5.75393e-10 -5.75254e-10 4.35661e-05)
(-5.45699e-10 -5.4562e-10 4.3568e-05)
(-5.41096e-10 -5.41127e-10 4.35696e-05)
(-4.75475e-10 -4.75718e-10 4.35722e-05)
(-2.96803e-07 -1.0562e-07 2.23849e-05)
(-7.52969e-07 -2.56425e-07 2.31463e-05)
(-9.28e-07 -3.02494e-07 2.44335e-05)
(-9.4043e-07 -2.9568e-07 2.58319e-05)
(-9.08976e-07 -2.794e-07 2.71232e-05)
(-8.55353e-07 -2.58405e-07 2.8303e-05)
(-7.85801e-07 -2.33674e-07 2.93829e-05)
(-7.15192e-07 -2.1023e-07 3.03517e-05)
(-6.51513e-07 -1.90232e-07 3.12099e-05)
(-5.95209e-07 -1.7316e-07 3.19721e-05)
(-5.45461e-07 -1.58415e-07 3.26533e-05)
(-5.01752e-07 -1.45703e-07 3.32649e-05)
(-4.63286e-07 -1.34677e-07 3.38164e-05)
(-4.29118e-07 -1.24967e-07 3.43162e-05)
(-3.98487e-07 -1.16304e-07 3.47712e-05)
(-3.70829e-07 -1.08495e-07 3.51869e-05)
(-3.45686e-07 -1.0139e-07 3.5568e-05)
(-3.22679e-07 -9.48683e-08 3.59185e-05)
(-3.01523e-07 -8.8848e-08 3.62415e-05)
(-2.82016e-07 -8.3277e-08 3.65401e-05)
(-2.64005e-07 -7.81174e-08 3.68165e-05)
(-2.47351e-07 -7.33319e-08 3.7073e-05)
(-2.31924e-07 -6.88827e-08 3.73112e-05)
(-2.17602e-07 -6.47354e-08 3.75328e-05)
(-2.04281e-07 -6.08616e-08 3.77394e-05)
(-1.91874e-07 -5.724e-08 3.79321e-05)
(-1.80311e-07 -5.3854e-08 3.81121e-05)
(-1.69532e-07 -5.06893e-08 3.82805e-05)
(-1.59481e-07 -4.77319e-08 3.84381e-05)
(-1.50102e-07 -4.4967e-08 3.85858e-05)
(-1.41343e-07 -4.23797e-08 3.87243e-05)
(-1.33154e-07 -3.99554e-08 3.88542e-05)
(-1.25489e-07 -3.76814e-08 3.89763e-05)
(-1.18308e-07 -3.55465e-08 3.9091e-05)
(-1.11574e-07 -3.35407e-08 3.91989e-05)
(-1.05257e-07 -3.16561e-08 3.93005e-05)
(-9.93296e-08 -2.98855e-08 3.93961e-05)
(-9.37647e-08 -2.82215e-08 3.94861e-05)
(-8.85392e-08 -2.66578e-08 3.9571e-05)
(-8.36307e-08 -2.51879e-08 3.96511e-05)
(-7.90161e-08 -2.3805e-08 3.97266e-05)
(-7.4676e-08 -2.25035e-08 3.97979e-05)
(-7.05917e-08 -2.12778e-08 3.98651e-05)
(-6.67451e-08 -2.01225e-08 3.99287e-05)
(-6.31208e-08 -1.90332e-08 3.99887e-05)
(-5.97051e-08 -1.8006e-08 4.00454e-05)
(-5.64838e-08 -1.70368e-08 4.0099e-05)
(-5.34457e-08 -1.61223e-08 4.01497e-05)
(-5.058e-08 -1.52595e-08 4.01976e-05)
(-4.78757e-08 -1.4445e-08 4.02429e-05)
(-4.53234e-08 -1.36762e-08 4.02858e-05)
(-4.29141e-08 -1.29504e-08 4.03264e-05)
(-4.06386e-08 -1.22647e-08 4.03648e-05)
(-3.84891e-08 -1.1617e-08 4.04012e-05)
(-3.64583e-08 -1.10048e-08 4.04356e-05)
(-3.45385e-08 -1.0426e-08 4.04682e-05)
(-3.27234e-08 -9.87861e-09 4.04991e-05)
(-3.10071e-08 -9.36093e-09 4.05284e-05)
(-2.93833e-08 -8.87108e-09 4.05561e-05)
(-2.78471e-08 -8.40761e-09 4.05823e-05)
(-2.63938e-08 -7.96907e-09 4.06072e-05)
(-2.50183e-08 -7.55403e-09 4.06308e-05)
(-2.37166e-08 -7.1612e-09 4.06531e-05)
(-2.24844e-08 -6.78936e-09 4.06743e-05)
(-2.13177e-08 -6.43722e-09 4.06944e-05)
(-2.0213e-08 -6.10379e-09 4.07134e-05)
(-1.91671e-08 -5.78811e-09 4.07315e-05)
(-1.81765e-08 -5.48912e-09 4.07486e-05)
(-1.72382e-08 -5.20586e-09 4.07648e-05)
(-1.63493e-08 -4.9375e-09 4.07802e-05)
(-1.55069e-08 -4.68314e-09 4.07948e-05)
(-1.47085e-08 -4.44214e-09 4.08086e-05)
(-1.3952e-08 -4.21379e-09 4.08218e-05)
(-1.32351e-08 -3.99733e-09 4.08342e-05)
(-1.25556e-08 -3.7921e-09 4.0846e-05)
(-1.19115e-08 -3.59755e-09 4.08572e-05)
(-1.13007e-08 -3.41307e-09 4.08679e-05)
(-1.07216e-08 -3.23824e-09 4.0878e-05)
(-1.01726e-08 -3.07254e-09 4.08875e-05)
(-9.6521e-09 -2.9154e-09 4.08966e-05)
(-9.15861e-09 -2.76632e-09 4.09052e-05)
(-8.69067e-09 -2.62492e-09 4.09134e-05)
(-8.24668e-09 -2.49079e-09 4.09211e-05)
(-7.82554e-09 -2.36366e-09 4.09285e-05)
(-7.42617e-09 -2.24313e-09 4.09355e-05)
(-7.04745e-09 -2.12879e-09 4.09421e-05)
(-6.68825e-09 -2.02025e-09 4.09484e-05)
(-6.34752e-09 -1.91726e-09 4.09544e-05)
(-6.0241e-09 -1.81954e-09 4.096e-05)
(-5.71723e-09 -1.72691e-09 4.09654e-05)
(-5.42616e-09 -1.63908e-09 4.09705e-05)
(-5.15009e-09 -1.55573e-09 4.09754e-05)
(-4.88818e-09 -1.47655e-09 4.09799e-05)
(-4.63966e-09 -1.4014e-09 4.09843e-05)
(-4.40369e-09 -1.33008e-09 4.09884e-05)
(-4.17973e-09 -1.26249e-09 4.09924e-05)
(-3.96729e-09 -1.1984e-09 4.09961e-05)
(-3.7658e-09 -1.13758e-09 4.09996e-05)
(-3.57463e-09 -1.07976e-09 4.1003e-05)
(-3.39319e-09 -1.02488e-09 4.10062e-05)
(-3.22085e-09 -9.72777e-10 4.10092e-05)
(-3.05726e-09 -9.23419e-10 4.10121e-05)
(-2.90207e-09 -8.76629e-10 4.10148e-05)
(-2.75487e-09 -8.32212e-10 4.10174e-05)
(-2.61519e-09 -7.89965e-10 4.10199e-05)
(-2.4826e-09 -7.4984e-10 4.10222e-05)
(-2.35662e-09 -7.11746e-10 4.10244e-05)
(-2.23702e-09 -6.75664e-10 4.10265e-05)
(-2.12358e-09 -6.41476e-10 4.10285e-05)
(-2.01604e-09 -6.09033e-10 4.10304e-05)
(-1.91404e-09 -5.7816e-10 4.10322e-05)
(-1.81726e-09 -5.48851e-10 4.10339e-05)
(-1.72537e-09 -5.21096e-10 4.10355e-05)
(-1.63837e-09 -4.9488e-10 4.10371e-05)
(-1.55667e-09 -4.70313e-10 4.10385e-05)
(-1.47952e-09 -4.47052e-10 4.10399e-05)
(-1.41177e-09 -4.26928e-10 4.10412e-05)
(-1.33941e-09 -4.04883e-10 4.10425e-05)
(-1.32524e-09 -4.03307e-10 4.10436e-05)
(-1.16687e-09 -3.50525e-10 4.10453e-05)
(-6.1389e-07 -1.6532e-07 2.243e-05)
(-1.44538e-06 -3.40444e-07 2.3548e-05)
(-1.68951e-06 -3.43365e-07 2.52155e-05)
(-1.67547e-06 -3.00383e-07 2.67971e-05)
(-1.59179e-06 -2.6204e-07 2.812e-05)
(-1.46131e-06 -2.24422e-07 2.92419e-05)
(-1.30696e-06 -1.89087e-07 3.0186e-05)
(-1.15771e-06 -1.60775e-07 3.0958e-05)
(-1.02505e-06 -1.39234e-07 3.15844e-05)
(-9.09674e-07 -1.22419e-07 3.20982e-05)
(-8.10503e-07 -1.09063e-07 3.25246e-05)
(-7.25948e-07 -9.83538e-08 3.28818e-05)
(-6.53752e-07 -8.95546e-08 3.31842e-05)
(-5.91648e-07 -8.21009e-08 3.3443e-05)
(-5.37811e-07 -7.56377e-08 3.36668e-05)
(-4.90802e-07 -6.9932e-08 3.38618e-05)
(-4.49441e-07 -6.48156e-08 3.40333e-05)
(-4.12779e-07 -6.01745e-08 3.4185e-05)
(-3.80086e-07 -5.59389e-08 3.43201e-05)
(-3.50801e-07 -5.20657e-08 3.44411e-05)
(-3.24474e-07 -4.85203e-08 3.455e-05)
(-3.00723e-07 -4.5267e-08 3.46484e-05)
(-2.79212e-07 -4.22719e-08 3.47377e-05)
(-2.59655e-07 -3.95061e-08 3.4819e-05)
(-2.41816e-07 -3.69469e-08 3.48933e-05)
(-2.25498e-07 -3.45779e-08 3.49615e-05)
(-2.10541e-07 -3.23855e-08 3.50241e-05)
(-1.96806e-07 -3.03567e-08 3.50819e-05)
(-1.8417e-07 -2.84783e-08 3.51353e-05)
(-1.72524e-07 -2.67367e-08 3.51846e-05)
(-1.61768e-07 -2.51188e-08 3.52304e-05)
(-1.51811e-07 -2.36126e-08 3.5273e-05)
(-1.42577e-07 -2.22083e-08 3.53126e-05)
(-1.33999e-07 -2.08975e-08 3.53495e-05)
(-1.26018e-07 -1.96729e-08 3.5384e-05)
(-1.18583e-07 -1.85288e-08 3.54162e-05)
(-1.11652e-07 -1.74597e-08 3.54464e-05)
(-1.05182e-07 -1.646e-08 3.54746e-05)
(-9.91386e-08 -1.55248e-08 3.55011e-05)
(-9.3488e-08 -1.46492e-08 3.5526e-05)
(-8.81979e-08 -1.38282e-08 3.55494e-05)
(-8.32411e-08 -1.30577e-08 3.55713e-05)
(-7.85924e-08 -1.2334e-08 3.5592e-05)
(-7.42277e-08 -1.16534e-08 3.56114e-05)
(-7.01271e-08 -1.10132e-08 3.56297e-05)
(-6.62724e-08 -1.04108e-08 3.5647e-05)
(-6.2646e-08 -9.84363e-09 3.56633e-05)
(-5.92333e-08 -9.30958e-09 3.56787e-05)
(-5.60206e-08 -8.80661e-09 3.56932e-05)
(-5.29941e-08 -8.33267e-09 3.57069e-05)
(-5.01424e-08 -7.88595e-09 3.57198e-05)
(-4.74542e-08 -7.46472e-09 3.5732e-05)
(-4.49184e-08 -7.06723e-09 3.57436e-05)
(-4.25258e-08 -6.69203e-09 3.57545e-05)
(-4.02676e-08 -6.3377e-09 3.57648e-05)
(-3.81348e-08 -6.0029e-09 3.57746e-05)
(-3.61201e-08 -5.68647e-09 3.57839e-05)
(-3.42165e-08 -5.38738e-09 3.57926e-05)
(-3.24168e-08 -5.10454e-09 3.58009e-05)
(-3.07153e-08 -4.83708e-09 3.58088e-05)
(-2.91066e-08 -4.58416e-09 3.58162e-05)
(-2.7585e-08 -4.3449e-09 3.58233e-05)
(-2.61456e-08 -4.11854e-09 3.58299e-05)
(-2.47838e-08 -3.90436e-09 3.58363e-05)
(-2.34948e-08 -3.70157e-09 3.58423e-05)
(-2.22747e-08 -3.50965e-09 3.58479e-05)
(-2.112e-08 -3.32798e-09 3.58533e-05)
(-2.00265e-08 -3.15593e-09 3.58584e-05)
(-1.89911e-08 -2.99293e-09 3.58633e-05)
(-1.80104e-08 -2.83852e-09 3.58678e-05)
(-1.70812e-08 -2.69219e-09 3.58722e-05)
(-1.62007e-08 -2.55359e-09 3.58763e-05)
(-1.53666e-08 -2.42226e-09 3.58802e-05)
(-1.45762e-08 -2.29778e-09 3.58839e-05)
(-1.38272e-08 -2.17974e-09 3.58874e-05)
(-1.31174e-08 -2.06786e-09 3.58908e-05)
(-1.24444e-08 -1.96181e-09 3.58939e-05)
(-1.18062e-08 -1.86134e-09 3.5897e-05)
(-1.12013e-08 -1.7661e-09 3.58998e-05)
(-1.06279e-08 -1.67577e-09 3.59025e-05)
(-1.00843e-08 -1.59004e-09 3.59051e-05)
(-9.5689e-09 -1.50876e-09 3.59075e-05)
(-9.07993e-09 -1.43167e-09 3.59098e-05)
(-8.61607e-09 -1.35863e-09 3.5912e-05)
(-8.17618e-09 -1.28937e-09 3.59141e-05)
(-7.75904e-09 -1.22364e-09 3.5916e-05)
(-7.36352e-09 -1.16122e-09 3.59179e-05)
(-6.98837e-09 -1.10202e-09 3.59197e-05)
(-6.6323e-09 -1.04586e-09 3.59214e-05)
(-6.29436e-09 -9.9265e-10 3.5923e-05)
(-5.97379e-09 -9.42181e-10 3.59245e-05)
(-5.66974e-09 -8.94255e-10 3.59259e-05)
(-5.3814e-09 -8.48707e-10 3.59273e-05)
(-5.10785e-09 -8.05497e-10 3.59286e-05)
(-4.8481e-09 -7.64515e-10 3.59298e-05)
(-4.6015e-09 -7.25697e-10 3.5931e-05)
(-4.36754e-09 -6.88879e-10 3.59321e-05)
(-4.14564e-09 -6.53904e-10 3.59332e-05)
(-3.93521e-09 -6.20638e-10 3.59342e-05)
(-3.73553e-09 -5.89075e-10 3.59351e-05)
(-3.54586e-09 -5.59142e-10 3.5936e-05)
(-3.36573e-09 -5.30802e-10 3.59369e-05)
(-3.1948e-09 -5.03922e-10 3.59377e-05)
(-3.03269e-09 -4.78378e-10 3.59384e-05)
(-2.87896e-09 -4.54061e-10 3.59392e-05)
(-2.73306e-09 -4.30985e-10 3.59399e-05)
(-2.59443e-09 -4.091e-10 3.59405e-05)
(-2.46275e-09 -3.88389e-10 3.59412e-05)
(-2.3378e-09 -3.6875e-10 3.59417e-05)
(-2.21934e-09 -3.50089e-10 3.59423e-05)
(-2.10708e-09 -3.32316e-10 3.59428e-05)
(-2.00059e-09 -3.15472e-10 3.59434e-05)
(-1.89951e-09 -2.99551e-10 3.59438e-05)
(-1.80376e-09 -2.84545e-10 3.59443e-05)
(-1.7138e-09 -2.7048e-10 3.59447e-05)
(-1.62893e-09 -2.5722e-10 3.59451e-05)
(-1.55418e-09 -2.45898e-10 3.59455e-05)
(-1.47523e-09 -2.33247e-10 3.59459e-05)
(-1.45553e-09 -2.34143e-10 3.59462e-05)
(-1.28465e-09 -1.99235e-10 3.59467e-05)
(-1.25998e-06 -3.12185e-07 2.25822e-05)
(-2.49065e-06 -4.56724e-07 2.45315e-05)
(-2.63602e-06 -3.59424e-07 2.66773e-05)
(-2.46394e-06 -2.7193e-07 2.81194e-05)
(-2.18871e-06 -2.10245e-07 2.89752e-05)
(-1.86199e-06 -1.57519e-07 2.95018e-05)
(-1.55017e-06 -1.17987e-07 2.98021e-05)
(-1.28698e-06 -9.19747e-08 2.99395e-05)
(-1.07341e-06 -7.45784e-08 2.99778e-05)
(-9.02152e-07 -6.23339e-08 2.99614e-05)
(-7.66006e-07 -5.36179e-08 2.99151e-05)
(-6.57896e-07 -4.7295e-08 2.98528e-05)
(-5.71349e-07 -4.24744e-08 2.97833e-05)
(-5.01225e-07 -3.85988e-08 2.97118e-05)
(-4.437e-07 -3.53497e-08 2.96411e-05)
(-3.95901e-07 -3.25256e-08 2.95727e-05)
(-3.55657e-07 -2.99997e-08 2.95073e-05)
(-3.21354e-07 -2.77059e-08 2.94452e-05)
(-2.9181e-07 -2.56141e-08 2.93865e-05)
(-2.66145e-07 -2.37068e-08 2.93312e-05)
(-2.43678e-07 -2.19666e-08 2.92792e-05)
(-2.2387e-07 -2.03739e-08 2.92302e-05)
(-2.06284e-07 -1.89117e-08 2.9184e-05)
(-1.90572e-07 -1.75676e-08 2.91406e-05)
(-1.76459e-07 -1.63329e-08 2.90998e-05)
(-1.63728e-07 -1.52007e-08 2.90614e-05)
(-1.52202e-07 -1.41642e-08 2.90252e-05)
(-1.41732e-07 -1.3215e-08 2.89911e-05)
(-1.32191e-07 -1.23444e-08 2.8959e-05)
(-1.23469e-07 -1.15436e-08 2.89288e-05)
(-1.15472e-07 -1.08048e-08 2.89003e-05)
(-1.08115e-07 -1.01215e-08 2.88734e-05)
(-1.01331e-07 -9.48861e-09 2.8848e-05)
(-9.5062e-08 -8.90206e-09 2.88241e-05)
(-8.92561e-08 -8.35814e-09 2.88015e-05)
(-8.38716e-08 -7.85369e-09 2.87802e-05)
(-7.88711e-08 -7.38554e-09 2.87601e-05)
(-7.42196e-08 -6.95042e-09 2.87411e-05)
(-6.98876e-08 -6.54543e-09 2.87231e-05)
(-6.58477e-08 -6.16777e-09 2.87062e-05)
(-6.20742e-08 -5.81486e-09 2.86901e-05)
(-5.85453e-08 -5.48463e-09 2.8675e-05)
(-5.52418e-08 -5.17527e-09 2.86607e-05)
(-5.21452e-08 -4.88516e-09 2.86471e-05)
(-4.92404e-08 -4.613e-09 2.86343e-05)
(-4.65137e-08 -4.35758e-09 2.86222e-05)
(-4.39518e-08 -4.11774e-09 2.86107e-05)
(-4.15437e-08 -3.89244e-09 2.85999e-05)
(-3.92791e-08 -3.68071e-09 2.85896e-05)
(-3.71478e-08 -3.48152e-09 2.85799e-05)
(-3.5141e-08 -3.29402e-09 2.85707e-05)
(-3.32506e-08 -3.11738e-09 2.8562e-05)
(-3.14684e-08 -2.95081e-09 2.85537e-05)
(-2.97877e-08 -2.79366e-09 2.85459e-05)
(-2.8202e-08 -2.64531e-09 2.85385e-05)
(-2.67051e-08 -2.5052e-09 2.85315e-05)
(-2.52915e-08 -2.37285e-09 2.85249e-05)
(-2.39562e-08 -2.2478e-09 2.85186e-05)
(-2.26944e-08 -2.12963e-09 2.85126e-05)
(-2.15018e-08 -2.01795e-09 2.8507e-05)
(-2.03745e-08 -1.9124e-09 2.85016e-05)
(-1.93085e-08 -1.81259e-09 2.84965e-05)
(-1.83002e-08 -1.71817e-09 2.84917e-05)
(-1.73465e-08 -1.62883e-09 2.84872e-05)
(-1.64439e-08 -1.54428e-09 2.84829e-05)
(-1.55897e-08 -1.46428e-09 2.84788e-05)
(-1.47813e-08 -1.38854e-09 2.84749e-05)
(-1.40159e-08 -1.31678e-09 2.84712e-05)
(-1.32911e-08 -1.24878e-09 2.84677e-05)
(-1.26046e-08 -1.18436e-09 2.84644e-05)
(-1.19542e-08 -1.12334e-09 2.84612e-05)
(-1.13379e-08 -1.06555e-09 2.84583e-05)
(-1.07542e-08 -1.0108e-09 2.84554e-05)
(-1.02011e-08 -9.58871e-10 2.84528e-05)
(-9.67698e-09 -9.09631e-10 2.84502e-05)
(-9.18024e-09 -8.62965e-10 2.84478e-05)
(-8.70918e-09 -8.18758e-10 2.84455e-05)
(-8.26259e-09 -7.76878e-10 2.84434e-05)
(-7.83932e-09 -7.37172e-10 2.84413e-05)
(-7.43813e-09 -6.9948e-10 2.84393e-05)
(-7.05782e-09 -6.63705e-10 2.84375e-05)
(-6.69715e-09 -6.29784e-10 2.84357e-05)
(-6.35492e-09 -5.97644e-10 2.84341e-05)
(-6.03026e-09 -5.67193e-10 2.84325e-05)
(-5.72245e-09 -5.38308e-10 2.8431e-05)
(-5.43062e-09 -5.10867e-10 2.84295e-05)
(-5.15389e-09 -4.84802e-10 2.84282e-05)
(-4.89134e-09 -4.60082e-10 2.84269e-05)
(-4.64208e-09 -4.36665e-10 2.84257e-05)
(-4.40552e-09 -4.14477e-10 2.84245e-05)
(-4.18118e-09 -3.93419e-10 2.84234e-05)
(-3.96847e-09 -3.73394e-10 2.84224e-05)
(-3.76674e-09 -3.54359e-10 2.84214e-05)
(-3.57527e-09 -3.36308e-10 2.84205e-05)
(-3.39341e-09 -3.1922e-10 2.84196e-05)
(-3.22077e-09 -3.03038e-10 2.84187e-05)
(-3.05703e-09 -2.87677e-10 2.84179e-05)
(-2.90181e-09 -2.73056e-10 2.84172e-05)
(-2.75459e-09 -2.59144e-10 2.84164e-05)
(-2.61482e-09 -2.4595e-10 2.84158e-05)
(-2.482e-09 -2.33469e-10 2.84151e-05)
(-2.35586e-09 -2.21656e-10 2.84145e-05)
(-2.23623e-09 -2.10441e-10 2.84139e-05)
(-2.12284e-09 -1.99759e-10 2.84133e-05)
(-2.0153e-09 -1.89588e-10 2.84128e-05)
(-1.91317e-09 -1.79944e-10 2.84123e-05)
(-1.81608e-09 -1.70827e-10 2.84118e-05)
(-1.72385e-09 -1.62197e-10 2.84114e-05)
(-1.6364e-09 -1.53999e-10 2.84109e-05)
(-1.55355e-09 -1.46191e-10 2.84105e-05)
(-1.47502e-09 -1.38763e-10 2.84102e-05)
(-1.40048e-09 -1.3174e-10 2.84098e-05)
(-1.32971e-09 -1.25126e-10 2.84094e-05)
(-1.26271e-09 -1.1889e-10 2.84091e-05)
(-1.19983e-09 -1.1306e-10 2.84088e-05)
(-1.14066e-09 -1.07567e-10 2.84085e-05)
(-1.0882e-09 -1.0298e-10 2.84082e-05)
(-1.03379e-09 -9.77156e-11 2.84079e-05)
(-1.01438e-09 -9.87075e-11 2.84077e-05)
(-9.05408e-10 -8.31769e-11 2.84074e-05)
(-1.0562e-07 -2.96803e-07 2.23849e-05)
(-2.56425e-07 -7.52969e-07 2.31463e-05)
(-3.02493e-07 -9.28001e-07 2.44335e-05)
(-2.95679e-07 -9.40431e-07 2.58319e-05)
(-2.794e-07 -9.08978e-07 2.71232e-05)
(-2.58406e-07 -8.55354e-07 2.8303e-05)
(-2.33675e-07 -7.858e-07 2.93829e-05)
(-2.1023e-07 -7.15191e-07 3.03517e-05)
(-1.90231e-07 -6.51514e-07 3.12099e-05)
(-1.7316e-07 -5.9521e-07 3.19721e-05)
(-1.58416e-07 -5.45461e-07 3.26533e-05)
(-1.45702e-07 -5.01753e-07 3.32649e-05)
(-1.34676e-07 -4.63287e-07 3.38164e-05)
(-1.24968e-07 -4.29117e-07 3.43162e-05)
(-1.16306e-07 -3.98484e-07 3.47712e-05)
(-1.08497e-07 -3.70827e-07 3.51869e-05)
(-1.01389e-07 -3.45687e-07 3.5568e-05)
(-9.48652e-08 -3.22684e-07 3.59184e-05)
(-8.88453e-08 -3.01527e-07 3.62415e-05)
(-8.32768e-08 -2.82016e-07 3.65401e-05)
(-7.81196e-08 -2.64001e-07 3.68165e-05)
(-7.33349e-08 -2.47347e-07 3.7073e-05)
(-6.88847e-08 -2.31921e-07 3.73112e-05)
(-6.47353e-08 -2.17602e-07 3.75328e-05)
(-6.08597e-08 -2.04283e-07 3.77394e-05)
(-5.72373e-08 -1.91878e-07 3.79321e-05)
(-5.38518e-08 -1.80314e-07 3.81121e-05)
(-5.06885e-08 -1.69534e-07 3.82805e-05)
(-4.77324e-08 -1.5948e-07 3.84381e-05)
(-4.49684e-08 -1.501e-07 3.85858e-05)
(-4.23813e-08 -1.41341e-07 3.87243e-05)
(-3.99566e-08 -1.33152e-07 3.88542e-05)
(-3.76818e-08 -1.25488e-07 3.89763e-05)
(-3.55461e-08 -1.18309e-07 3.9091e-05)
(-3.35398e-08 -1.11575e-07 3.91989e-05)
(-3.16551e-08 -1.05259e-07 3.93005e-05)
(-2.98848e-08 -9.9331e-08 3.93961e-05)
(-2.82212e-08 -9.37654e-08 3.94861e-05)
(-2.6658e-08 -8.85392e-08 3.9571e-05)
(-2.51884e-08 -8.363e-08 3.96511e-05)
(-2.38057e-08 -7.9015e-08 3.97266e-05)
(-2.25042e-08 -7.46748e-08 3.97979e-05)
(-2.12783e-08 -7.05907e-08 3.98651e-05)
(-2.01228e-08 -6.67444e-08 3.99287e-05)
(-1.90333e-08 -6.31206e-08 3.99887e-05)
(-1.80059e-08 -5.97052e-08 4.00454e-05)
(-1.70366e-08 -5.64842e-08 4.0099e-05)
(-1.61221e-08 -5.34461e-08 4.01497e-05)
(-1.52592e-08 -5.05804e-08 4.01976e-05)
(-1.44449e-08 -4.78759e-08 4.02429e-05)
(-1.36761e-08 -4.53235e-08 4.02858e-05)
(-1.29504e-08 -4.29141e-08 4.03264e-05)
(-1.22648e-08 -4.06385e-08 4.03648e-05)
(-1.1617e-08 -3.8489e-08 4.04012e-05)
(-1.10048e-08 -3.64581e-08 4.04356e-05)
(-1.0426e-08 -3.45384e-08 4.04682e-05)
(-9.8785e-09 -3.27234e-08 4.04991e-05)
(-9.36075e-09 -3.10072e-08 4.05284e-05)
(-8.87087e-09 -2.93835e-08 4.05561e-05)
(-8.40738e-09 -2.78473e-08 4.05823e-05)
(-7.96883e-09 -2.6394e-08 4.06072e-05)
(-7.55376e-09 -2.50186e-08 4.06308e-05)
(-7.16094e-09 -2.37168e-08 4.06531e-05)
(-6.78912e-09 -2.24847e-08 4.06743e-05)
(-6.43699e-09 -2.1318e-08 4.06944e-05)
(-6.10359e-09 -2.02132e-08 4.07134e-05)
(-5.78795e-09 -1.91672e-08 4.07315e-05)
(-5.48899e-09 -1.81766e-08 4.07486e-05)
(-5.20575e-09 -1.72383e-08 4.07648e-05)
(-4.93735e-09 -1.63495e-08 4.07802e-05)
(-4.68295e-09 -1.5507e-08 4.07948e-05)
(-4.44193e-09 -1.47087e-08 4.08086e-05)
(-4.21362e-09 -1.39522e-08 4.08218e-05)
(-3.99721e-09 -1.32352e-08 4.08342e-05)
(-3.792e-09 -1.25557e-08 4.0846e-05)
(-3.5974e-09 -1.19117e-08 4.08572e-05)
(-3.41286e-09 -1.13009e-08 4.08679e-05)
(-3.23801e-09 -1.07218e-08 4.0878e-05)
(-3.07236e-09 -1.01727e-08 4.08875e-05)
(-2.91528e-09 -9.65223e-09 4.08966e-05)
(-2.76623e-09 -9.15875e-09 4.09052e-05)
(-2.62479e-09 -8.69085e-09 4.09134e-05)
(-2.49061e-09 -8.24688e-09 4.09211e-05)
(-2.36345e-09 -7.82573e-09 4.09285e-05)
(-2.24297e-09 -7.42632e-09 4.09355e-05)
(-2.12869e-09 -7.04757e-09 4.09421e-05)
(-2.02017e-09 -6.68837e-09 4.09484e-05)
(-1.91714e-09 -6.34769e-09 4.09544e-05)
(-1.81936e-09 -6.0243e-09 4.096e-05)
(-1.72671e-09 -5.71742e-09 4.09654e-05)
(-1.63894e-09 -5.4263e-09 4.09705e-05)
(-1.55565e-09 -5.15021e-09 4.09754e-05)
(-1.4765e-09 -4.8883e-09 4.09799e-05)
(-1.40131e-09 -4.63983e-09 4.09843e-05)
(-1.32993e-09 -4.40387e-09 4.09884e-05)
(-1.26233e-09 -4.17989e-09 4.09924e-05)
(-1.19831e-09 -3.96739e-09 4.09961e-05)
(-1.13756e-09 -3.76588e-09 4.09996e-05)
(-1.07977e-09 -3.5747e-09 4.1003e-05)
(-1.02484e-09 -3.39331e-09 4.10062e-05)
(-9.72683e-10 -3.22099e-09 4.10092e-05)
(-9.23306e-10 -3.05739e-09 4.10121e-05)
(-8.76566e-10 -2.90215e-09 4.10148e-05)
(-8.32193e-10 -2.75495e-09 4.10174e-05)
(-7.89952e-10 -2.61529e-09 4.10199e-05)
(-7.49761e-10 -2.48276e-09 4.10222e-05)
(-7.116e-10 -2.35681e-09 4.10244e-05)
(-6.75498e-10 -2.2372e-09 4.10265e-05)
(-6.41366e-10 -2.12371e-09 4.10285e-05)
(-6.08982e-10 -2.01614e-09 4.10304e-05)
(-5.78134e-10 -1.91414e-09 4.10322e-05)
(-5.48787e-10 -1.81739e-09 4.10339e-05)
(-5.20996e-10 -1.72552e-09 4.10355e-05)
(-4.94798e-10 -1.63849e-09 4.10371e-05)
(-4.70277e-10 -1.55671e-09 4.10385e-05)
(-4.47063e-10 -1.47952e-09 4.10399e-05)
(-4.26908e-10 -1.4118e-09 4.10412e-05)
(-4.04822e-10 -1.33947e-09 4.10425e-05)
(-4.03207e-10 -1.32537e-09 4.10436e-05)
(-3.50468e-10 -1.16693e-09 4.10453e-05)
(-2.86421e-07 -2.86421e-07 2.24048e-05)
(-7.07384e-07 -7.07384e-07 2.32717e-05)
(-8.54443e-07 -8.54443e-07 2.46627e-05)
(-8.63994e-07 -8.63994e-07 2.61144e-05)
(-8.39432e-07 -8.39433e-07 2.74311e-05)
(-7.90791e-07 -7.90792e-07 2.86241e-05)
(-7.24778e-07 -7.24777e-07 2.96985e-05)
(-6.56987e-07 -6.56986e-07 3.06406e-05)
(-5.94765e-07 -5.94765e-07 3.14556e-05)
(-5.38818e-07 -5.38818e-07 3.21625e-05)
(-4.89057e-07 -4.89056e-07 3.27792e-05)
(-4.45373e-07 -4.45374e-07 3.332e-05)
(-4.07145e-07 -4.07146e-07 3.37971e-05)
(-3.73529e-07 -3.73528e-07 3.42208e-05)
(-3.43802e-07 -3.43799e-07 3.45995e-05)
(-3.17366e-07 -3.17364e-07 3.49399e-05)
(-2.93706e-07 -2.93707e-07 3.52473e-05)
(-2.72388e-07 -2.72392e-07 3.55262e-05)
(-2.53079e-07 -2.53083e-07 3.57802e-05)
(-2.35524e-07 -2.35525e-07 3.60125e-05)
(-2.19519e-07 -2.19516e-07 3.62255e-05)
(-2.04881e-07 -2.04876e-07 3.64213e-05)
(-1.91449e-07 -1.91445e-07 3.66018e-05)
(-1.79081e-07 -1.79081e-07 3.67685e-05)
(-1.67663e-07 -1.67666e-07 3.69229e-05)
(-1.57102e-07 -1.57106e-07 3.70662e-05)
(-1.4732e-07 -1.47324e-07 3.71993e-05)
(-1.38252e-07 -1.38254e-07 3.73233e-05)
(-1.29837e-07 -1.29836e-07 3.74388e-05)
(-1.22017e-07 -1.22014e-07 3.75466e-05)
(-1.14739e-07 -1.14736e-07 3.76474e-05)
(-1.07955e-07 -1.07953e-07 3.77417e-05)
(-1.01622e-07 -1.01621e-07 3.78301e-05)
(-9.57054e-08 -9.57058e-08 3.79128e-05)
(-9.01704e-08 -9.01718e-08 3.79906e-05)
(-8.49903e-08 -8.4992e-08 3.80635e-05)
(-8.01404e-08 -8.01418e-08 3.81321e-05)
(-7.55961e-08 -7.55969e-08 3.81967e-05)
(-7.13365e-08 -7.13365e-08 3.82574e-05)
(-6.73414e-08 -6.73407e-08 3.83145e-05)
(-6.35905e-08 -6.35894e-08 3.83684e-05)
(-6.00669e-08 -6.00657e-08 3.84192e-05)
(-5.67546e-08 -5.67535e-08 3.84671e-05)
(-5.36381e-08 -5.36373e-08 3.85123e-05)
(-5.07046e-08 -5.07043e-08 3.85549e-05)
(-4.79425e-08 -4.79426e-08 3.85952e-05)
(-4.534e-08 -4.53404e-08 3.86333e-05)
(-4.28877e-08 -4.28882e-08 3.86692e-05)
(-4.05765e-08 -4.05769e-08 3.87032e-05)
(-3.8397e-08 -3.83973e-08 3.87353e-05)
(-3.63414e-08 -3.63415e-08 3.87657e-05)
(-3.44021e-08 -3.44021e-08 3.87944e-05)
(-3.25714e-08 -3.25713e-08 3.88216e-05)
(-3.08428e-08 -3.08427e-08 3.88474e-05)
(-2.92104e-08 -2.92102e-08 3.88717e-05)
(-2.76677e-08 -2.76676e-08 3.88948e-05)
(-2.62097e-08 -2.62097e-08 3.89166e-05)
(-2.48314e-08 -2.48316e-08 3.89373e-05)
(-2.3528e-08 -2.35282e-08 3.89569e-05)
(-2.22953e-08 -2.22955e-08 3.89754e-05)
(-2.11294e-08 -2.11297e-08 3.8993e-05)
(-2.00263e-08 -2.00266e-08 3.90097e-05)
(-1.89826e-08 -1.89829e-08 3.90254e-05)
(-1.79949e-08 -1.79952e-08 3.90404e-05)
(-1.70599e-08 -1.70602e-08 3.90546e-05)
(-1.61748e-08 -1.6175e-08 3.9068e-05)
(-1.53369e-08 -1.5337e-08 3.90808e-05)
(-1.45434e-08 -1.45435e-08 3.90928e-05)
(-1.37919e-08 -1.37919e-08 3.91043e-05)
(-1.308e-08 -1.30801e-08 3.91152e-05)
(-1.24054e-08 -1.24055e-08 3.91255e-05)
(-1.17662e-08 -1.17663e-08 3.91352e-05)
(-1.11606e-08 -1.11607e-08 3.91445e-05)
(-1.05867e-08 -1.05868e-08 3.91533e-05)
(-1.00428e-08 -1.00429e-08 3.91616e-05)
(-9.52727e-09 -9.52743e-09 3.91695e-05)
(-9.03843e-09 -9.03864e-09 3.9177e-05)
(-8.57501e-09 -8.57522e-09 3.91841e-05)
(-8.13577e-09 -8.13593e-09 3.91909e-05)
(-7.71934e-09 -7.71946e-09 3.91973e-05)
(-7.32452e-09 -7.32462e-09 3.92034e-05)
(-6.95011e-09 -6.95026e-09 3.92091e-05)
(-6.5949e-09 -6.59509e-09 3.92146e-05)
(-6.258e-09 -6.25819e-09 3.92198e-05)
(-5.93858e-09 -5.93872e-09 3.92247e-05)
(-5.63565e-09 -5.63575e-09 3.92294e-05)
(-5.34833e-09 -5.34842e-09 3.92338e-05)
(-5.07576e-09 -5.07591e-09 3.9238e-05)
(-4.81707e-09 -4.81726e-09 3.9242e-05)
(-4.57163e-09 -4.57182e-09 3.92458e-05)
(-4.33887e-09 -4.33901e-09 3.92494e-05)
(-4.11809e-09 -4.11818e-09 3.92529e-05)
(-3.90862e-09 -3.9087e-09 3.92561e-05)
(-3.70983e-09 -3.70996e-09 3.92592e-05)
(-3.5211e-09 -3.52127e-09 3.92621e-05)
(-3.34202e-09 -3.34217e-09 3.92649e-05)
(-3.17217e-09 -3.17226e-09 3.92675e-05)
(-3.01106e-09 -3.0111e-09 3.927e-05)
(-2.85818e-09 -2.85821e-09 3.92724e-05)
(-2.71306e-09 -2.71314e-09 3.92746e-05)
(-2.57524e-09 -2.57536e-09 3.92767e-05)
(-2.44443e-09 -2.44455e-09 3.92788e-05)
(-2.32037e-09 -2.32044e-09 3.92807e-05)
(-2.20268e-09 -2.20271e-09 3.92825e-05)
(-2.09097e-09 -2.09103e-09 3.92843e-05)
(-1.98492e-09 -1.98504e-09 3.92859e-05)
(-1.88417e-09 -1.88435e-09 3.92875e-05)
(-1.78854e-09 -1.78872e-09 3.9289e-05)
(-1.69787e-09 -1.698e-09 3.92904e-05)
(-1.6119e-09 -1.61197e-09 3.92917e-05)
(-1.53033e-09 -1.53038e-09 3.9293e-05)
(-1.4529e-09 -1.453e-09 3.92942e-05)
(-1.37943e-09 -1.37957e-09 3.92953e-05)
(-1.30989e-09 -1.31001e-09 3.92964e-05)
(-1.24458e-09 -1.2446e-09 3.92974e-05)
(-1.18286e-09 -1.18283e-09 3.92984e-05)
(-1.12848e-09 -1.12846e-09 3.92993e-05)
(-1.07066e-09 -1.0707e-09 3.93003e-05)
(-1.05778e-09 -1.05792e-09 3.9301e-05)
(-9.31985e-10 -9.32059e-10 3.93022e-05)
(-5.73916e-07 -3.1631e-07 2.24484e-05)
(-1.3394e-06 -7.38766e-07 2.36164e-05)
(-1.55228e-06 -8.48368e-07 2.53123e-05)
(-1.5375e-06 -8.36519e-07 2.69033e-05)
(-1.4625e-06 -7.94969e-07 2.82364e-05)
(-1.34085e-06 -7.26039e-07 2.93651e-05)
(-1.19527e-06 -6.43584e-07 3.03025e-05)
(-1.05405e-06 -5.65072e-07 3.10545e-05)
(-9.28053e-07 -4.96095e-07 3.16522e-05)
(-8.1849e-07 -4.36653e-07 3.2132e-05)
(-7.24839e-07 -3.8625e-07 3.25216e-05)
(-6.45665e-07 -3.4398e-07 3.28412e-05)
(-5.78703e-07 -3.08461e-07 3.31067e-05)
(-5.2167e-07 -2.78354e-07 3.333e-05)
(-4.72702e-07 -2.52597e-07 3.35202e-05)
(-4.30308e-07 -2.30348e-07 3.36837e-05)
(-3.93282e-07 -2.10928e-07 3.38257e-05)
(-3.60671e-07 -1.93813e-07 3.395e-05)
(-3.31746e-07 -1.78614e-07 3.40595e-05)
(-3.05949e-07 -1.65036e-07 3.41568e-05)